<?xml version="1.0" encoding="utf-8"?>
<VTKFile type="StructuredGrid">
  <StructuredGrid WholeExtent="0 4 0 4 0 0">
    <Piece Extent="0 4 0 4 0 0">
      <PointData Scalars="Data">
        <DataArray Name="Data" type="Float64" NumberOfComponents="1" format="ascii">
2.718281828459045 1.8682459574322223 1.6487212707001282 1.8682459574322223 2.718281828459045 1.8682459574322223 1.2840254166877414 1.1331484530668263 1.2840254166877414 1.8682459574322223 1.6487212707001282 1.1331484530668263 1.0 1.1331484530668263 1.6487212707001282 1.8682459574322223 1.2840254166877414 1.1331484530668263 1.2840254166877414 1.8682459574322223 2.718281828459045 1.8682459574322223 1.6487212707001282 1.8682459574322223 2.718281828459045 
</DataArray>
      </PointData>
      <Points>
        <DataArray Name="Axis" type="Float64" NumberOfComponents="3" format="ascii">
-1.0 -1.0 0.0
-0.5 -1.0 0.0
0.0 -1.0 0.0
0.5 -1.0 0.0
1.0 -1.0 0.0
-1.0 -0.5 0.0
-0.5 -0.5 0.0
0.0 -0.5 0.0
0.5 -0.5 0.0
1.0 -0.5 0.0
-1.0 0.0 0.0
-0.5 0.0 0.0
0.0 0.0 0.0
0.5 0.0 0.0
1.0 0.0 0.0
-1.0 0.5 0.0
-0.5 0.5 0.0
0.0 0.5 0.0
0.5 0.5 0.0
1.0 0.5 0.0
-1.0 1.0 0.0
-0.5 1.0 0.0
0.0 1.0 0.0
0.5 1.0 0.0
1.0 1.0 0.0
</DataArray>
      </Points>
    </Piece>
  </StructuredGrid>
</VTKFile>
