<?xml version="1.0" encoding="utf-8"?>
<VTKFile type="UnstructuredGrid">
  <UnstructuredGrid>
    <Piece NumberOfPoints="220" NumberOfCells="669">
      <CellData Scalars="Data">
        <DataArray Name="Data" type="Float64" NumberOfComponents="1" format="ascii">
	  0.6512950608594982 0.5899054147718982 0.6058387758450685 0.38268901561438984 0.6265503876826624 0.635361699786328 0.14133376553340618 0.4161740850786435 0.6510648920564421 0.7248777404856562 0.6158989436397648 0.7461573578104161 0.6046472760297172 0.5997222917859144 0.7401445758722988 0.6940486838211455 0.5633087179484915 0.1960500964333159 0.18679676084462013 0.5790890268534447 0.3985479834259174 0.7204960252762915 0.6734333637405872 0.7323313258305529 0.263402809490336 0.7187453148552937 0.7466146479930669 0.6128372011818297 0.6475884925179165 0.1907531905080148 0.39354977154946125 0.5843234158344949 0.2299328994699522 0.6044408583453069 0.14172764378978453 0.3933433538650509 0.2160387577170851 0.8492950560621326 0.12294177161514178 0.15728328048763107 0.6175786087460206 0.14662152583365998 0.8318225132571642 0.1757765450729323 0.5596185623414519 0.37794517447953896 0.8429167661839162 0.6128744839280245 0.6730346644470738 0.837385786119556 0.11695895781531213 0.2877071397891809 0.8278704838222043 0.7964083036817735 0.12902392541794536 0.7825329505240968 0.6571830814634838 0.8774269296928333 0.8216371488591564 0.529608678569556 0.20917405292433686 0.08276653660418162 0.6641741639406378 0.1911470687643932 0.8119729977671719 0.9256090633106451 0.8192755379652669 0.6169941337906659 0.5629210578683853 0.7617149420239276 0.8411637804862309 0.5242584318247927 0.44469285924052043 0.16964092005035886 0.8593084669631381 0.9058353926755748 0.7233316299627925 0.6914654075682014 0.18495400296159625 0.4529383890209787 0.45864042208653333 0.5706102293336622 0.6511074443959971 0.1669575509875102 0.08276653660418162 0.542897964628924 0.8627183855419358 0.5343107858900824 0.13869661414783252 0.6950418789194832 0.5385223086017424 0.12209223320158494 0.13663429620465412 0.4892360479617405 0.31361909315804204 0.35502907430812314 0.1760035322039503 0.17556177258249694 0.8760526174400161 0.454021534628978 0.37908455966577703 0.5911414447056905 0.08137403227288766 0.787944531402511 0.2027441466211847 0.8565458299425075 0.08137403227288766 0.5537790469408482 0.14019161953050782 0.876730258026464 0.6498559693157128 0.15348623062640823 0.37838706391806903 0.6556343966113078 0.2012491412385094 0.13216006935806776 0.26903594718034296 0.8270887880070127 0.8687705787028408 0.5771686010629947 0.3670716453187919 0.2563131423643576 0.5905419143903522 0.8782763685493279 0.3024550348140205 0.258973226377863 0.14662152583365998 0.3691169713440069 0.41086760833377406 0.7805032573798149 0.5904582718306414 0.2487923353381291 0.667227944071271 0.08137403227288766 0.2596605756510679 0.4349610641933121 0.11467606416042825 0.2585314667564097 0.5194202595477883 0.6034009900878079 0.8359319467984483 0.2888465249754189 0.7309601814505131 0.3394838007761286 0.5556891043299096 0.7412491504308271 0.06385498922947835 0.5029228017577877 0.6550499216559532 0.324273431408703 0.7037265804999452 0.5017224624765482 0.3324047607789408 0.47959228824630545 0.46894327220498816 0.6679647510096465 0.8561741014754434 0.40354456894051527 0.8941039177547032 0.48324756206799335 0.3520914200239868 0.40541120606155184 0.06255252709067688 0.5564352539781032 0.5045185176115872 0.607226736312038 0.6815507302691886 0.8885729376903431 0.5735190722060132 0.06255252709067688 0.9433607803098285 0.5069272460781438 0.4920773224942653 0.4302791967870897 0.665789330388883 0.6649109708790133 0.9507431374448747 0.7488769178699595 0.4916842098633372 0.3575644826031069 0.4030991793556829 0.43333923095711396 0.8383868474516143 0.6260520636944176 0.5130613212274435 0.8774269296928333 0.8810793758122895 0.3519615999814833 0.574278110328508 0.8200910383362925 0.1852251035777754 0.40850025300842685 0.9433607803098285 0.1040302242404385 0.09657514381564328 0.7977219450782956 0.39392543284565384 0.8232678545593144 0.08137403227288766 0.8936664746546218 0.5941952248363238 0.4112149566933961 0.2952006135515737 0.43443630555672175 0.4401514320015147 0.2906159537111393 0.668810407326907 0.3902246007908088 0.8219852554689517 0.20517585962326457 0.6341482173282009 0.4914777921789269 0.13466472544419744 0.2868111954350451 0.12439368518060252 0.5831317741686755 0.6487539917191438 0.40402903536958945 0.5379331705138463 0.7052062587163562 0.7593596170974417 0.3788755458324642 0.37765655607987914 0.33236557068353884 0.3836635521949465 0.7190035261748702 0.3619269901326831 0.8698093206713248 0.13869661414783252 0.948812848429213 0.26416285902958997 0.28682167925999524 0.700072569042678 0.43735010222103293 0.6163979323473283 0.363578096791475 0.8286009600444076 0.8473089104426319 0.7520415147943675 0.12640751632015523 0.5190168312716993 0.31292074885183485 0.3188120159975825 0.8194133977498446 0.05881758725762017 0.15520414093183604 0.06385498922947835 0.8386430470017746 0.5130795149366707 0.19059480298784834 0.31210880702601046 0.7544964154475335 0.7350410433342378 0.45721905533014867 0.33770047609121 0.8728243004299434 0.45770570707217917 0.3780362123114337 0.2534154088771962 0.394455758818334 0.4219157247050305 0.1384715004925559 0.14019161953050782 0.4530227534018897 0.43342648237370857 0.3527942240092586 0.30834875282306257 0.14888876551079552 0.07211219835352058 0.10263137669703179 0.8767105277669129 0.17590796462627423 0.5195970222369111 0.4660910925182017 0.1539493320737085 0.9256090633106451 0.6535270337165842 0.39861557109762913 0.9259871205815893 0.1429874919230484 0.4622316331215304 0.9294635201201149 0.28639889553977105 0.3138508120653069 0.7502093543077814 0.12137011434829706 0.3545487870262971 0.7440904655973402 0.12267257648709853 0.791196442232191 0.149623953258135 0.15309903462560687 0.31340501917547003 0.74474447958193 0.7534103430227874 0.5660549906102625 0.870611149629272 0.4302223810669399 0.0559300775436509 0.5794503492320708 0.521936941587807 0.13882091416904108 0.8786244751591232 0.4662774117346376 0.4504837672584124 0.4782913089646247 0.6784517240151218 0.6883180380573967 0.06255252709067688 0.5912587297490067 0.18032376272425343 0.7575649036706857 0.7291587943577368 0.5440757865916388 0.10821156437073284 0.32933817419600203 0.25074595798424437 0.37902282813265353 0.22062005688117725 0.4372330355137438 0.6963593121794995 0.06255252709067688 0.5049497813742077 0.7181379821777661 0.4418394068169434 0.23609788846232985 0.2995923819187811 0.364012116934759 0.6894753783966815 0.30888022611703597 0.9256090633106451 0.538885784380815 0.11709037736865405 0.46020540493144235 0.8995559858740877 0.6759931203175883 0.8549973267921648 0.3992845471655086 0.22522667825877124 0.10263137669703179 0.357624049578748 0.5484225022073771 0.9259871205815893 0.9518178663821882 0.28865455150138525 0.07211219835352058 0.5949227496008842 0.07211219835352058 0.24783522120349516 0.06385498922947835 0.36516915225483115 0.1280422758971715 0.9098442560179153 0.10281225691208826 0.11848260463432778 0.8799070742494859 0.09657514381564328 0.28129881475963814 0.9117929555238952 0.6495115987549118 0.9294635201201149 0.06385498922947835 0.8760526174400161 0.876730258026464 0.9014797246963676 0.5875071144952968 0.8782763685493279 0.7381908115289664 0.06385498922947835 0.9294635201201149 0.6703768432903299 0.5644690721554018 0.3026998371158408 0.950443554129371 0.3218508766588577 0.4233717500067721 0.7727986636011454 0.07334248210044758 0.5278567119343661 0.05881758725762017 0.25173949046946137 0.42449465481828424 0.11205297539679587 0.7294611059716072 0.6372456270214053 0.9203054552844787 0.23949803324062485 0.7641591650980276 0.9433607803098285 0.0467012991533809 0.34968241770925684 0.3851062575606754 0.9029918967337626 0.5926009111717183 0.5925365121729389 0.44364623419511573 0.0559300775436509 0.08435280937757217 0.9507431374448747 0.2901770777346182 0.09295868796714463 0.7457463457644408 0.7306538017409674 0.923266299348189 0.9112309883875921 0.3037195377515537 0.9507431374448747 0.5296491192506116 0.0559300775436509 0.25714190369378037 0.5057339788033905 0.19133376553329565 0.9641568817779607 0.5623726780768209 0.0377575565580231 0.9433607803098285 0.08328206673560495 0.04017523501096015 0.7635956023768615 0.05881758725762017 0.05881758725762017 0.6690547583376306 0.3320292056008049 0.08924404539612853 0.31968849820958256 0.48303871440825175 0.9195036263265315 0.9503056943447933 0.6105414069703046 0.9507431374448747 0.42043806383487137 0.6215147467017306 0.5876218939227142 0.8816578805592007 0.9550922552307001 0.9503056943447933 0.0467012991533809 0.43257175439903606 0.04256386580690767 0.04256386580690767 0.09927406338818515 0.5798079649539687 0.9313521862144074 0.3797477187734667 0.8768110979658565 0.09369387571448409 0.8720650172994183 0.22521991278405906 0.9312661823113175 0.9029430489223272 0.0469925765611032 0.9067141214790921 0.5436457949196476 0.9511740303515743 0.12913159065930904 0.24861431356955918 0.8574572589239668 0.8691322614374712 0.046257388813763727 0.27381200955869794 0.14755478388182003 0.2320287772173378 0.1417968348410169 0.09527329705473808 0.09407043039774644 0.790890747887266 0.08687438344617723 0.950443554129371 0.4736505849023317 0.948812848429213 0.4478678908911343 0.14380564625474904 0.12990440604480974 0.8696942285737742 0.952637354577534 0.9058026924976328 0.8031124341682306 0.20046560302415853 0.2762066897734251 0.9086444104947539 0.0559300775436509 0.2714504418628291 0.2131308472058664 0.9685882406062782 0.07965391323493574 0.0559300775436509 0.9278048549337508 0.07496592493956272 0.7513047078559918 0.9091795268816597 0.43597493156402733 0.230204644869767 0.0389572676826099 0.952637354577534 0.9264048334221197 0.9507431374448747 0.9579012730498792 0.05881758725762017 0.5735127949620555 0.7437847712524153 0.09513174481608835 0.7782925041584711 0.0377575565580231 0.9099448262168588 0.24024653028289292 0.9673170039910334 0.03600865725695283 0.9125264556262963 0.9503056943447933 0.09279523597831532 0.07589620252013335 0.08856144670184121 0.09057025811557333 0.06753953284070348 0.9180274412579661 0.9073612530462303 0.9180274412579661 0.4765407978722537 0.1363961829677801 0.21695423880468837 0.9673170039910334 0.962220761281503 0.6483857439066399 0.4000203559279316 0.03558492554242448 0.948812848429213 0.08411469614069818 0.9208813801445612 0.6141123127976571 0.24323699559940187 0.5374329180375055 0.948812848429213 0.9511740303515743 0.9061844783629518 0.921759322954625 0.8020614116090703 0.0467012991533809 0.7860376150964911 0.048280720493634875 0.959538561673122 0.957307471639325 0.21046246188171797 0.06714565458432513 0.04189635667691265 0.959538561673122 0.7844736661146496 0.5338490514709174 0.8141591650981593 0.950443554129371 0.08856144670184121 0.3354191633619532 0.0339998458432207 0.8573612530460987 0.5106765400209397 0.7872013939575047 0.9641568817779607 0.046699148435217074 0.9073612530462303 0.9629801070946822 0.13856144670173068 0.0465378471645516 0.04256386580690767 0.962220761281503 0.09323699559976867 0.6807302213350479 0.2968377299310354 0.9587359727522887 0.46855066587370453 0.9507431374448747 0.9290452056366547 0.0358339756470633 0.03519104728604613 0.32153052273135974 0.9579012730498792 0.0532353881391757 0.8717593229544933 0.0389572676826099 0.719884389966208 0.031954607298279 0.49918363905742774 0.0417889435706645 0.9673170039910334 0.952637354577534 0.9685882406062782 0.950443554129371 0.7411871863656878 0.05228148682708195 0.0377575565580231 0.21467275197749588 0.05228148682708195 0.6842462095790299 0.0339998458432207 0.0469925765611032 0.2788387763301763 0.9641568817779607 0.0532353881391757 0.046257388813763727 0.9518178663821882 0.9604569650303765 0.9604878509427174 0.2758956132231032 0.04189635667691265 0.8680274412578345 0.9591094175702283 0.9550922552307001 0.9668662717489976 0.7816904089504703 0.11714565458421461 0.13411469614058766 0.2098954590665802 0.4786863435628188 0.9503056943447933 0.040718200928697275 0.14323699559965813 0.8093084669630064 0.04017523501096015 0.7175335271722462 0.03558492554242448 0.9626779417050393 0.03600865725695283 0.9691314249329044 0.9629801070946822 0.879045205636523 0.5428700268192572 0.5567299099337606 0.6802441093793541 0.6863197464468409 0.6203740023796611 0.6264496394471479 0.36526933164607406 0.321643363918963 0.43551870505266294 0.39189273732555185 0.7929816468684192 0.7581337451486877 0.7430050527480077 0.7081571510282761 0.1646560990084926 0.12393789807979533 0.21914771366377983 0.2494709684466359 0.9433607803098285 0.8689698436204736 0.8019608414101267 0.7950596343145386 0.912399726870025 0.9550922552307001 0.8959981348873625 0.952637354577534 0.9591094175702283 0.917845390322517 0.8463038292321557 0.9029430489223272 0.8785479923786255 0.9180601414359081 0.04017523501096015 0.07913250269357006 0.9122748314125648 0.9518178663821882 0.9190317947356491 0.8817097364406885 0.9129697302071738 0.872079147777402 0.0417889435706645 0.07762291921772779 0.0759092482147434 0.040718200928697275 0.871857468586699 0.9131214958344103 
	</DataArray>
      </CellData>
      <Points>
        <DataArray Name="Nodes" type="Float64" NumberOfComponents="3" format="ascii">
	  0.0 0.0 0.0
	  1.0 0.0 0.0
	  1.0 1.0 0.0
	  0.0 1.0 0.0
	  0.0 0.0 1.0
	  1.0 0.0 1.0
	  1.0 1.0 1.0
	  0.0 1.0 1.0
	  0.1999999999995579 0.0 0.0
	  0.3999999999989749 0.0 0.0
	  0.5999999999989468 0.0 0.0
	  0.7999999999994734 0.0 0.0
	  1.0 0.1999999999995579 0.0
	  1.0 0.3999999999989749 0.0
	  1.0 0.5999999999989468 0.0
	  1.0 0.7999999999994734 0.0
	  0.7999999999999998 1.0 0.0
	  0.6000000000013869 1.0 0.0
	  0.4000000000016644 1.0 0.0
	  0.2000000000008322 1.0 0.0
	  0.0 0.7999999999999998 0.0
	  0.0 0.6000000000013869 0.0
	  0.0 0.4000000000016644 0.0
	  0.0 0.2000000000008322 0.0
	  0.1999999999995579 0.0 1.0
	  0.3999999999989749 0.0 1.0
	  0.5999999999989468 0.0 1.0
	  0.7999999999994734 0.0 1.0
	  1.0 0.1999999999995579 1.0
	  1.0 0.3999999999989749 1.0
	  1.0 0.5999999999989468 1.0
	  1.0 0.7999999999994734 1.0
	  0.7999999999999998 1.0 1.0
	  0.6000000000013869 1.0 1.0
	  0.4000000000016644 1.0 1.0
	  0.2000000000008322 1.0 1.0
	  0.0 0.7999999999999998 1.0
	  0.0 0.6000000000013869 1.0
	  0.0 0.4000000000016644 1.0
	  0.0 0.2000000000008322 1.0
	  0.0 0.0 0.1999999999995579
	  0.0 0.0 0.3999999999989749
	  0.0 0.0 0.5999999999989468
	  0.0 0.0 0.7999999999994734
	  1.0 0.0 0.1999999999995579
	  1.0 0.0 0.3999999999989749
	  1.0 0.0 0.5999999999989468
	  1.0 0.0 0.7999999999994734
	  1.0 1.0 0.1999999999995579
	  1.0 1.0 0.3999999999989749
	  1.0 1.0 0.5999999999989468
	  1.0 1.0 0.7999999999994734
	  0.0 1.0 0.1999999999995579
	  0.0 1.0 0.3999999999989749
	  0.0 1.0 0.5999999999989468
	  0.0 1.0 0.7999999999994734
	  0.4999999999995262 0.4999999999991697 0.0
	  0.7124999999991418 0.7124999999993721 0.0
	  0.7125000000000453 0.2875000000003787 0.0
	  0.2874999999997015 0.7124999999999346 0.0
	  0.2874999999995859 0.2874999999990284 0.0
	  0.2039355468747129 0.5103260869565506 0.0
	  0.4896739130429323 0.2039355468746514 0.0
	  0.510326086956569 0.7960644531246526 0.0
	  0.7960644531247141 0.4896739130429139 0.0
	  0.8329166666662559 0.8329166666661691 0.0
	  0.1670833333332905 0.8329166666668464 0.0
	  0.8329166666664838 0.1670833333333569 0.0
	  0.1670833333327664 0.1670833333329761 0.0
	  0.6316566512545138 0.5696556884914438 0.0
	  0.4244708316950335 0.6167953758393676 0.0
	  0.568965971682958 0.3685476922609884 0.0
	  0.3830470425011805 0.4245763388943522 0.0
	  0.3129818840584115 0.8682962239582868 0.0
	  0.8682962239580224 0.6870181159413751 0.0
	  0.131703776041413 0.3129818840582103 0.0
	  0.6870181159415762 0.1317037760416774 0.0
	  0.6879372088508874 0.8674995349698233 0.0
	  0.1325004650296678 0.6879372088513213 0.0
	  0.8674995349701474 0.3120627911487539 0.0
	  0.31206279114832 0.1325004650293439 0.0
	  0.3230168718401873 0.0 0.8765256997316174
	  0.14865313979157 0.0 0.8488830451260121
	  0.8620256095552993 0.0 0.8418278601215061
	  0.8216590966614443 0.0 0.6018678400358378
	  0.6884689508859068 0.0 0.807271465528753
	  0.2748023899619914 0.0 0.7300051381558346
	  0.1230168718406998 0.0 0.6765256997310909
	  0.4651223635606891 0.0 0.8046961214062974
	  0.8033904191531542 0.0 0.3707669856042916
	  0.6941275884182847 0.0 0.1879703062444128
	  0.6372052948713213 0.0 0.3928450717814407
	  0.2020508602231707 0.0 0.5375253705212648
	  0.3112036708399964 0.0 0.1850295552550549
	  0.5078065959746578 0.0 0.1868051966135236
	  0.3873858334129431 0.0 0.6168392091745603
	  0.1210481712035454 0.0 0.1861513886582064
	  0.2150853563817179 0.0 0.3318787766956509
	  0.4140655699648423 0.0 0.4074287698937953
	  0.5821824988258731 0.0 0.6022313372533163
	  0.8829196679284853 0.0 0.1931228819745395
	  1.0 0.7684718839973527 0.4733256892947409
	  1.0 0.8190905025489482 0.697316623617486
	  1.0 0.348048143090134 0.656720586039168
	  1.0 0.4885414493030617 0.834943891009155
	  1.0 0.5947344760325601 0.6244057303206219
	  1.0 0.2995045082024247 0.167155774282658
	  1.0 0.3990458461490894 0.3300536698365028
	  1.0 0.4936980146321513 0.1702554632276307
	  1.0 0.6038635938297618 0.3666281734234599
	  1.0 0.1523669398737725 0.7210530453059336
	  1.0 0.1653534743543722 0.5335283658499104
	  1.0 0.6829181070410338 0.8364376702809132
	  1.0 0.8730648098947913 0.8566275271118429
	  1.0 0.6915430037143447 0.1628728037147891
	  1.0 0.4522076524176287 0.5054674785794301
	  1.0 0.3091461355568388 0.4621474709155987
	  1.0 0.1755281620450646 0.3222322233476329
	  1.0 0.319329664823622 0.8507117668201574
	  1.0 0.8214700181228665 0.2905984759292846
	  1.0 0.1385925810466132 0.1433359025882532
	  1.0 0.86494162719574 0.1407641891441845
	  1.0 0.1343393209393905 0.8743529624251127
	  0.3189369359629112 1.0 0.8419514037708694
	  0.5190283396202449 1.0 0.8316050921995165
	  0.1973064635334746 1.0 0.6766958107986808
	  0.1748066807163555 1.0 0.4766511736983957
	  0.1205702003700877 1.0 0.1359993833728828
	  0.1534614713271716 1.0 0.285336049459398
	  0.3568091937632845 1.0 0.3285942255544853
	  0.2721101886569516 1.0 0.1675854267076506
	  0.3395575319936835 1.0 0.5221233422686385
	  0.6941904304129544 1.0 0.8519204283787285
	  0.674190481548619 1.0 0.6343931023387872
	  0.8583632030856606 1.0 0.7728174850730786
	  0.5869577119398761 1.0 0.2920631610607872
	  0.5120933810849932 1.0 0.4614249611382548
	  0.6905720407160287 1.0 0.4364901704161781
	  0.4268521897939337 1.0 0.6613656187087139
	  0.4863479346313631 1.0 0.1510302262320924
	  0.6993101242065336 1.0 0.1423397021696979
	  0.8634306912278155 1.0 0.127818429193116
	  0.8178433319325439 1.0 0.2967524437963242
	  0.8401615095471421 1.0 0.5234088669370484
	  0.1475527098746191 1.0 0.8692680159641336
	  0.0 0.6714807784917027 0.8203690209228003
	  0.0 0.4782868342473413 0.8292298865572997
	  0.0 0.5165148542434499 0.664438271983677
	  0.0 0.3372196674397996 0.7010012545728552
	  0.0 0.3211707780076768 0.8674650869959906
	  0.0 0.5227618351466545 0.1558290707304396
	  0.0 0.3348143625317445 0.1607009400438406
	  0.0 0.1657722599367851 0.6604591385866087
	  0.0 0.3376441471821752 0.518418541370347
	  0.0 0.8466199887631816 0.438094200554958
	  0.0 0.7281457516270762 0.596681473485164
	  0.0 0.8666044216864631 0.8028417490677308
	  0.0 0.4358593161995638 0.3289567453428913
	  0.0 0.2331535843570242 0.3600786224028363
	  0.0 0.6618478461411006 0.3455959944600719
	  0.0 0.6888913276886285 0.1440346290278113
	  0.0 0.8567655946561301 0.218246403434482
	  0.0 0.1490759603646332 0.5051807895645724
	  0.0 0.1279946578149335 0.1867965937408683
	  0.0 0.1706937842308488 0.8381542466924881
	  0.0 0.5367424739146799 0.5005235015941153
	  0.5000000000007675 0.5000000000004313 1.0
	  0.2875000000010026 0.2875000000004451 1.0
	  0.7125000000000992 0.2875000000003246 1.0
	  0.2874999999997556 0.7124999999998806 1.0
	  0.7125000000005585 0.7125000000007887 1.0
	  0.4896739130443142 0.7960644531252491 1.0
	  0.7960644531253293 0.5103260869564601 1.0
	  0.2039355468753665 0.4896739130442754 1.0
	  0.5103260869564987 0.2039355468752862 1.0
	  0.1670833333336762 0.1670833333338859 1.0
	  0.1670833333333252 0.8329166666668117 1.0
	  0.8329166666665182 0.1670833333333224 1.0
	  0.8329166666671656 0.8329166666670789 1.0
	  0.4303443115086527 0.3683433487454378 1.0
	  0.3832046241605923 0.5755291683048072 1.0
	  0.6314523077390808 0.4310340283171389 1.0
	  0.5754236611054848 0.6169529574988699 1.0
	  0.1325004650301523 0.3120627911500392 1.0
	  0.3120627911496353 0.8674995349703338 1.0
	  0.6879372088505438 0.132500465029876 1.0
	  0.8674995349706103 0.6879372088509478 1.0
	  0.1317037760416895 0.6870181159424709 1.0
	  0.687018115942685 0.8682962239586234 1.0
	  0.3129818840579421 0.1317037760419234 1.0
	  0.8682962239583892 0.312981884057728 1.0
	  0.5024645166213269 0.5015746748118677 0.4999999999999949
	  0.3097854097355542 0.3036441497682211 0.6522231514611441
	  0.3113595556685998 0.3064025568065765 0.3310661464167265
	  0.6928206907627861 0.696253250139522 0.3254961290915506
	  0.2940717749398917 0.6100056439703789 0.7039484823263573
	  0.305606757646704 0.7170407371191763 0.4215634005334556
	  0.6178688225484423 0.2936364421581729 0.7024362532425803
	  0.695867130377029 0.3914522579598819 0.2884487934140823
	  0.7015154546618226 0.5896029772308098 0.7178540804804594
	  0.4659741524427313 0.4892548017706096 0.2502101083627075
	  0.5085063895339761 0.7469886567163901 0.6129623665059999
	  0.4925624259890534 0.253852002808242 0.4920971606807746
	  0.255478439499896 0.4852807678524483 0.4929228314184159
	  0.7387949134805887 0.4285849514011671 0.531207601989063
	  0.4530292297090109 0.4484751272897167 0.773443121239314
	  0.2256018235249536 0.5509023012278892 0.2554199569179134
	  0.4664680227872401 0.7356362113930751 0.2352703490304807
	  0.5130742425012977 0.2630427608530327 0.2237203101746036
	  0.7488117146439766 0.7713550794221613 0.5554395324580081
	  0.7852853613320648 0.2257886754690082 0.4259916661429673
	  0.6339123132489108 0.7902745333494002 0.795251393716852
	  0.194529348635143 0.3902859465702513 0.8105494183101356
	  0.3838417278425891 0.7894482028937655 0.802972549779499
	  0.1875194225534098 0.2448535855447549 0.4905247101570625
	  0.7929226835826668 0.3991925912485296 0.8017742165174838
	  0.230846554030211 0.7762632206970908 0.2129415525567028
	  0.273832557852572 0.2030164462457606 0.8012227773791732
	  0.8022298979366065 0.2189426249027286 0.2091259473083278
	  0.5177636955782718 0.6856875512666446 0.4224184248075115
	</DataArray>
      </Points>
      <Cells>
        <DataArray Name="connectivity" type="Int64" NumberOfComponents="1" format="ascii">
	  195 196 125 213
	  131 196 201 213
	  131 125 196 213
	  191 200 198 202
	  110 197 103 210
	  195 201 196 213
	  142 141 121 65
	  196 200 191 203
	  199 201 191 205
	  201 205 199 211
	  192 197 95 202
	  205 211 201 213
	  191 203 192 205
	  125 195 155 196
	  88 197 192 217
	  88 95 192 197
	  191 201 199 219
	  64 108 194 198
	  75 151 193 206
	  103 197 204 210
	  191 200 196 219
	  110 103 197 215
	  191 197 199 205
	  197 205 192 217
	  119 142 121 194
	  88 192 95 217
	  156 195 125 213
	  84 197 110 210
	  195 191 201 205
	  142 65 121 194
	  193 191 200 203
	  111 110 103 210
	  121 114 119 194
	  192 202 191 205
	  142 141 65 140
	  191 193 200 202
	  69 198 194 200
	  177 122 110 215
	  151 68 75 193
	  65 114 121 194
	  191 195 203 205
	  75 193 60 206
	  187 195 145 213
	  77 194 140 207
	  191 196 195 201
	  109 194 198 204
	  182 211 205 213
	  197 191 199 204
	  103 204 197 215
	  186 112 199 211
	  65 140 77 194
	  109 194 108 198
	  85 197 177 215
	  112 113 102 211
	  80 68 93 193
	  145 195 156 213
	  152 87 214 217
	  185 177 85 197
	  182 199 205 211
	  191 195 196 203
	  193 200 72 206
	  80 60 68 193
	  192 203 148 212
	  140 65 142 194
	  122 118 110 215
	  168 177 185 197
	  174 205 197 217
	  191 202 197 205
	  192 202 95 214
	  102 199 112 211
	  83 177 110 215
	  126 131 125 196
	  109 194 204 209
	  68 151 163 193
	  83 122 110 177
	  187 145 176 213
	  195 205 201 213
	  102 209 199 211
	  80 193 93 208
	  191 202 198 204
	  204 209 194 219
	  84 110 111 210
	  152 214 192 217
	  108 198 79 218
	  60 75 68 193
	  126 125 155 196
	  83 85 177 215
	  192 191 202 203
	  60 193 80 208
	  156 155 125 195
	  192 153 203 214
	  65 74 114 194
	  106 108 79 218
	  196 201 191 219
	  198 202 200 208
	  200 203 196 206
	  68 163 96 193
	  68 96 93 193
	  168 177 197 215
	  193 202 191 203
	  109 198 107 204
	  153 148 192 203
	  57 64 74 194
	  125 144 156 213
	  69 200 194 207
	  176 145 156 213
	  65 77 57 194
	  155 196 195 203
	  77 57 194 207
	  187 169 195 213
	  138 131 201 213
	  69 64 194 198
	  158 97 193 214
	  192 203 195 205
	  72 200 193 208
	  139 77 140 207
	  157 193 151 206
	  88 174 197 217
	  144 176 156 213
	  201 209 199 219
	  142 194 119 209
	  114 108 109 194
	  153 192 148 214
	  170 186 199 211
	  97 163 158 193
	  97 96 163 193
	  72 60 193 206
	  135 194 137 219
	  193 203 157 214
	  134 102 113 211
	  165 195 147 203
	  140 194 135 207
	  147 148 203 212
	  65 57 74 194
	  163 151 158 193
	  194 209 137 219
	  79 108 64 198
	  97 93 96 193
	  109 204 105 209
	  99 95 197 202
	  173 146 195 212
	  109 108 107 198
	  156 145 155 195
	  128 196 154 216
	  99 202 197 210
	  192 212 148 217
	  75 60 61 206
	  155 165 196 203
	  192 197 202 205
	  200 202 193 208
	  152 192 148 217
	  95 202 98 214
	  193 203 200 206
	  136 201 196 219
	  136 137 209 219
	  147 203 195 212
	  134 113 178 211
	  137 194 142 209
	  180 182 205 213
	  126 155 154 196
	  157 203 193 206
	  126 154 128 196
	  56 69 70 200
	  191 197 202 204
	  131 196 136 201
	  105 204 199 209
	  88 99 95 197
	  172 186 112 199
	  155 195 165 203
	  56 71 69 200
	  181 166 182 205
	  109 115 105 204
	  192 202 193 203
	  98 202 193 214
	  138 125 131 213
	  195 203 192 212
	  187 176 169 213
	  199 205 197 215
	  192 203 193 214
	  202 208 198 210
	  136 135 137 219
	  109 107 115 204
	  145 173 146 195
	  152 148 192 214
	  136 209 201 219
	  185 85 174 197
	  145 187 173 195
	  196 207 129 219
	  92 192 95 214
	  180 205 195 213
	  70 206 200 207
	  136 196 129 219
	  166 180 182 205
	  75 61 151 206
	  139 63 77 207
	  125 123 144 213
	  107 204 198 210
	  181 205 199 215
	  69 64 57 194
	  179 205 174 217
	  153 147 148 203
	  101 119 194 209
	  157 158 151 193
	  198 204 202 210
	  159 196 165 203
	  200 206 196 207
	  199 204 105 215
	  98 193 97 214
	  180 195 205 212
	  140 135 139 207
	  86 95 92 192
	  193 202 192 214
	  71 198 69 200
	  98 93 193 208
	  79 198 58 218
	  84 99 197 210
	  105 199 102 209
	  101 142 119 209
	  202 204 197 210
	  102 134 209 211
	  205 212 192 217
	  196 203 159 206
	  158 193 157 214
	  200 207 196 219
	  91 208 202 210
	  112 102 105 199
	  136 129 207 219
	  149 212 183 217
	  72 193 60 208
	  170 178 186 211
	  140 142 135 194
	  198 210 208 218
	  95 192 86 217
	  107 116 204 210
	  165 155 147 195
	  193 202 98 208
	  85 88 174 197
	  172 112 104 199
	  146 147 195 212
	  72 200 70 206
	  103 204 116 210
	  91 208 210 218
	  135 207 194 219
	  181 197 205 215
	  77 63 57 207
	  76 208 90 218
	  72 61 60 206
	  172 199 104 215
	  92 95 98 214
	  198 200 71 208
	  129 196 128 216
	  147 145 146 195
	  192 205 195 212
	  107 116 115 204
	  135 142 137 194
	  181 182 199 205
	  153 157 203 214
	  126 128 129 196
	  91 90 208 218
	  157 165 203 206
	  158 162 97 214
	  73 139 130 207
	  69 194 57 207
	  137 142 143 209
	  131 129 136 196
	  136 207 135 219
	  194 207 200 219
	  93 94 80 208
	  64 58 79 198
	  80 94 62 208
	  164 149 183 217
	  206 207 59 216
	  103 116 111 210
	  155 165 159 196
	  130 73 207 216
	  185 174 168 197
	  103 105 204 215
	  159 203 165 206
	  169 173 187 195
	  151 61 150 206
	  101 143 142 209
	  172 170 186 199
	  119 114 109 194
	  97 98 93 193
	  164 152 148 217
	  70 200 69 207
	  154 196 159 216
	  87 152 164 217
	  70 59 206 207
	  164 82 87 217
	  76 94 90 208
	  78 160 206 216
	  107 210 198 218
	  104 199 105 215
	  112 105 104 199
	  136 133 201 209
	  81 189 88 217
	  101 194 109 209
	  62 60 80 208
	  103 105 115 204
	  136 137 133 209
	  160 150 78 206
	  180 173 195 212
	  92 97 162 214
	  159 154 155 196
	  91 202 99 210
	  85 84 99 197
	  197 204 199 215
	  56 72 71 200
	  152 87 92 214
	  198 208 58 218
	  110 118 103 215
	  85 99 88 197
	  153 165 147 203
	  76 58 208 218
	  136 129 135 207
	  98 94 93 208
	  98 202 91 208
	  139 129 130 207
	  129 131 126 196
	  155 145 147 195
	  70 72 56 200
	  105 101 109 209
	  201 211 138 213
	  98 97 92 214
	  130 207 129 216
	  129 207 196 216
	  101 119 109 194
	  133 209 134 211
	  196 206 159 216
	  174 181 168 197
	  115 116 103 204
	  59 78 206 216
	  165 153 157 203
	  171 211 182 213
	  138 201 133 211
	  132 134 178 211
	  158 41 97 162
	  157 151 150 206
	  62 94 76 208
	  157 159 165 206
	  152 92 162 214
	  180 173 169 195
	  174 185 26 85
	  161 128 154 216
	  69 71 64 198
	  87 152 92 162
	  58 64 71 198
	  94 91 90 208
	  61 72 70 206
	  119 101 49 142
	  71 58 198 208
	  164 183 175 217
	  150 61 78 206
	  71 200 72 208
	  172 181 199 215
	  73 63 139 207
	  196 207 206 216
	  132 178 188 211
	  133 201 209 211
	  172 182 170 199
	  61 59 78 206
	  181 168 197 215
	  180 195 169 213
	  189 174 88 217
	  126 155 125 54
	  170 199 182 211
	  88 95 86 217
	  61 70 59 206
	  182 172 181 199
	  199 209 201 211
	  131 136 138 201
	  94 98 91 208
	  168 190 177 215
	  117 210 107 218
	  143 49 101 142
	  124 138 211 213
	  140 139 17 77
	  155 126 154 54
	  69 57 63 207
	  135 129 139 207
	  158 157 153 214
	  59 207 73 216
	  104 105 103 215
	  143 102 134 209
	  25 88 81 189
	  159 206 160 216
	  82 86 87 217
	  179 166 181 205
	  62 80 9 94
	  91 210 89 218
	  107 117 116 210
	  26 88 174 85
	  152 153 148 214
	  133 138 136 201
	  92 97 41 162
	  76 58 62 208
	  13 79 106 108