<?xml version="1.0" encoding="utf-8"?>
<VTKFile type="UnstructuredGrid">
  <UnstructuredGrid>
    <Piece NumberOfPoints="220" NumberOfCells="669">
      <CellData Scalars="Data">
        <DataArray Name="Data" type="Float64" NumberOfComponents="1" format="ascii">
	  0.6512950608594982 0.5899054147718982 0.6058387758450685 ............. 0.38268901561438984
	</DataArray>
      </CellData>
      <Points>
        <DataArray Name="Nodes" type="Float64" NumberOfComponents="3" format="ascii">
	  0.0 0.0 0.0
	  1.0 0.0 0.0
	  1.0 1.0 0.0
	  ......
	  0.5177636955782718 0.6856875512666446 0.4224184248075115
	</DataArray>
      </Points>
      <Cells>
        <DataArray Name="connectivity" type="Int64" NumberOfComponents="1" format="ascii">
	  195 196 125 213
	  131 196 201 213
	  131 125 196 213
	  ......
	  215 118 29 190
	</DataArray>
        <DataArray Name="offsets" type="Int64" NumberOfComponents="1" format="ascii">
	  4 8 12 ....... 2676 
	</DataArray>
        <DataArray Name="types" type="Int64" NumberOfComponents="1" format="ascii">
	  10 10 10 ....... 10 
	</DataArray>
      </Cells>
    </Piece>
  </UnstructuredGrid>
</VTKFile>
