<?xml version="1.0" encoding="utf-8"?>
<VTKFile type="PolyData">
  <PolyData>
    <Piece NumberOfPoints="10001" NumberOfLines="10000" NumberOfVerts="0" NumberOfStrips="0" NumberOfPolys="0">
      <PointData Scalars="Line">
        <DataArray Name="Line" type="Float64" NumberOfComponents="1" format="ascii">
0.0 0.01 0.02 0.03 0.04 0.05 0.06 0.07 0.08 0.09 0.1 0.11 0.12 0.13 0.14 0.15 0.16 0.17 0.18 0.19 0.2 0.21 0.22 0.23 0.24 0.25 0.26 0.27 0.28 0.29 0.3 0.31 0.32 0.33 0.34 0.35000000000000003 0.36 0.37 0.38 0.39 0.4 0.41000000000000003 0.42 0.43 0.44 0.45 0.46 0.47000000000000003 0.48 0.49 0.5 0.51 0.52 0.53 0.54 0.55 0.56 0.5700000000000001 0.58 0.59 0.6 0.61 0.62 0.63 0.64 0.65 0.66 0.67 0.68 0.6900000000000001 0.7000000000000001 0.71 0.72 0.73 0.74 0.75 0.76 0.77 0.78 0.79 0.8 0.81 0.8200000000000001 0.8300000000000001 0.84 0.85 0.86 0.87 0.88 0.89 0.9 0.91 0.92 0.93 0.9400000000000001 0.9500000000000001 0.96 0.97 0.98 0.99 1.0 1.01 1.02 1.03 1.04 1.05 1.06 1.07 1.08 1.09 1.1 1.11 1.12 1.1300000000000001 1.1400000000000001 1.1500000000000001 1.16 1.17 1.18 1.19 1.2 1.21 1.22 1.23 1.24 1.25 1.26 1.27 1.28 1.29 1.3 1.31 1.32 1.33 1.34 1.35 1.36 1.37 1.3800000000000001 1.3900000000000001 1.4000000000000001 1.41 1.42 1.43 1.44 1.45 1.46 1.47 1.48 1.49 1.5 1.51 1.52 1.53 1.54 1.55 1.56 1.57 1.58 1.59 1.6 1.61 1.62 1.6300000000000001 1.6400000000000001 1.6500000000000001 1.6600000000000001 1.67 1.68 1.69 1.7 1.71 1.72 1.73 1.74 1.75 1.76 1.77 1.78 1.79 1.8 1.81 1.82 1.83 1.84 1.85 1.86 1.87 1.8800000000000001 1.8900000000000001 1.9000000000000001 1.9100000000000001 1.92 1.93 1.94 1.95 1.96 1.97 1.98 1.99 2.0 2.0100000000000002 2.02 2.0300000000000002 2.04 2.05 2.06 2.07 2.08 2.09 2.1 2.11 2.12 2.13 2.14 2.15 2.16 2.17 2.18 2.19 2.2 2.21 2.22 2.23 2.24 2.25 2.2600000000000002 2.27 2.2800000000000002 2.29 2.3000000000000003 2.31 2.32 2.33 2.34 2.35 2.36 2.37 2.38 2.39 2.4 2.41 2.42 2.43 2.44 2.45 2.46 2.47 2.48 2.49 2.5 2.5100000000000002 2.52 2.5300000000000002 2.54 2.5500000000000003 2.56 2.57 2.58 2.59 2.6 2.61 2.62 2.63 2.64 2.65 2.66 2.67 2.68 2.69 2.7 2.71 2.72 2.73 2.74 2.75 2.7600000000000002 2.77 2.7800000000000002 2.79 2.8000000000000003 2.81 2.82 2.83 2.84 2.85 2.86 2.87 2.88 2.89 2.9 2.91 2.92 2.93 2.94 2.95 2.96 2.97 2.98 2.99 3.0 3.0100000000000002 3.02 3.0300000000000002 3.04 3.0500000000000003 3.06 3.0700000000000003 3.08 3.09 3.1 3.11 3.12 3.13 3.14 3.15 3.16 3.17 3.18 3.19 3.2 3.21 3.22 3.23 3.24 3.25 3.2600000000000002 3.27 3.2800000000000002 3.29 3.3000000000000003 3.31 3.3200000000000003 3.33 3.34 3.35 3.36 3.37 3.38 3.39 3.4 3.41 3.42 3.43 3.44 3.45 3.46 3.47 3.48 3.49 3.5 3.5100000000000002 3.52 3.5300000000000002 3.54 3.5500000000000003 3.56 3.5700000000000003 3.58 3.59 3.6 3.61 3.62 3.63 3.64 3.65 3.66 3.67 3.68 3.69 3.7 3.71 3.72 3.73 3.74 3.75 3.7600000000000002 3.77 3.7800000000000002 3.79 3.8000000000000003 3.81 3.8200000000000003 3.83 3.84 3.85 3.86 3.87 3.88 3.89 3.9 3.91 3.92 3.93 3.94 3.95 3.96 3.97 3.98 3.99 4.0 4.01 4.0200000000000005 4.03 4.04 4.05 4.0600000000000005 4.07 4.08 4.09 4.1 4.11 4.12 4.13 4.14 4.15 4.16 4.17 4.18 4.19 4.2 4.21 4.22 4.23 4.24 4.25 4.26 4.2700000000000005 4.28 4.29 4.3 4.3100000000000005 4.32 4.33 4.34 4.3500000000000005 4.36 4.37 4.38 4.39 4.4 4.41 4.42 4.43 4.44 4.45 4.46 4.47 4.48 4.49 4.5 4.51 4.5200000000000005 4.53 4.54 4.55 4.5600000000000005 4.57 4.58 4.59 4.6000000000000005 4.61 4.62 4.63 4.64 4.65 4.66 4.67 4.68 4.69 4.7 4.71 4.72 4.73 4.74 4.75 4.76 4.7700000000000005 4.78 4.79 4.8 4.8100000000000005 4.82 4.83 4.84 4.8500000000000005 4.86 4.87 4.88 4.89 4.9 4.91 4.92 4.93 4.94 4.95 4.96 4.97 4.98 4.99 5.0 5.01 5.0200000000000005 5.03 5.04 5.05 5.0600000000000005 5.07 5.08 5.09 5.1000000000000005 5.11 5.12 5.13 5.14 5.15 5.16 5.17 5.18 5.19 5.2 5.21 5.22 5.23 5.24 5.25 5.26 5.2700000000000005 5.28 5.29 5.3 5.3100000000000005 5.32 5.33 5.34 5.3500000000000005 5.36 5.37 5.38 5.39 5.4 5.41 5.42 5.43 5.44 5.45 5.46 5.47 5.48 5.49 5.5 5.51 5.5200000000000005 5.53 5.54 5.55 5.5600000000000005 5.57 5.58 5.59 5.6000000000000005 5.61 5.62 5.63 5.64 5.65 5.66 5.67 5.68 5.69 5.7 5.71 5.72 5.73 5.74 5.75 5.76 5.7700000000000005 5.78 5.79 5.8 5.8100000000000005 5.82 5.83 5.84 5.8500000000000005 5.86 5.87 5.88 5.89 5.9 5.91 5.92 5.93 5.94 5.95 5.96 5.97 5.98 5.99 6.0 6.01 6.0200000000000005 6.03 6.04 6.05 6.0600000000000005 6.07 6.08 6.09 6.1000000000000005 6.11 6.12 6.13 6.140000000000001 6.15 6.16 6.17 6.18 6.19 6.2 6.21 6.22 6.23 6.24 6.25 6.26 6.2700000000000005 6.28 6.29 6.3 6.3100000000000005 6.32 6.33 6.34 6.3500000000000005 6.36 6.37 6.38 6.390000000000001 6.4 6.41 6.42 6.43 6.44 6.45 6.46 6.47 6.48 6.49 6.5 6.51 6.5200000000000005 6.53 6.54 6.55 6.5600000000000005 6.57 6.58 6.59 6.6000000000000005 6.61 6.62 6.63 6.640000000000001 6.65 6.66 6.67 6.68 6.69 6.7 6.71 6.72 6.73 6.74 6.75 6.76 6.7700000000000005 6.78 6.79 6.8 6.8100000000000005 6.82 6.83 6.84 6.8500000000000005 6.86 6.87 6.88 6.890000000000001 6.9 6.91 6.92 6.93 6.94 6.95 6.96 6.97 6.98 6.99 7.0 7.01 7.0200000000000005 7.03 7.04 7.05 7.0600000000000005 7.07 7.08 7.09 7.1000000000000005 7.11 7.12 7.13 7.140000000000001 7.15 7.16 7.17 7.18 7.19 7.2 7.21 7.22 7.23 7.24 7.25 7.26 7.2700000000000005 7.28 7.29 7.3 7.3100000000000005 7.32 7.33 7.34 7.3500000000000005 7.36 7.37 7.38 7.390000000000001 7.4 7.41 7.42 7.43 7.44 7.45 7.46 7.47 7.48 7.49 7.5 7.51 7.5200000000000005 7.53 7.54 7.55 7.5600000000000005 7.57 7.58 7.59 7.6000000000000005 7.61 7.62 7.63 7.640000000000001 7.65 7.66 7.67 7.68 7.69 7.7 7.71 7.72 7.73 7.74 7.75 7.76 7.7700000000000005 7.78 7.79 7.8 7.8100000000000005 7.82 7.83 7.84 7.8500000000000005 7.86 7.87 7.88 7.890000000000001 7.9 7.91 7.92 7.930000000000001 7.94 7.95 7.96 7.97 7.98 7.99 8.0 8.01 8.02 8.03 8.040000000000001 8.05 8.06 8.07 8.08 8.09 8.1 8.11 8.120000000000001 8.13 8.14 8.15 8.16 8.17 8.18 8.19 8.2 8.21 8.22 8.23 8.24 8.25 8.26 8.27 8.28 8.290000000000001 8.3 8.31 8.32 8.33 8.34 8.35 8.36 8.370000000000001 8.38 8.39 8.4 8.41 8.42 8.43 8.44 8.45 8.46 8.47 8.48 8.49 8.5 8.51 8.52 8.53 8.540000000000001 8.55 8.56 8.57 8.58 8.59 8.6 8.61 8.620000000000001 8.63 8.64 8.65 8.66 8.67 8.68 8.69 8.700000000000001 8.71 8.72 8.73 8.74 8.75 8.76 8.77 8.78 8.790000000000001 8.8 8.81 8.82 8.83 8.84 8.85 8.86 8.870000000000001 8.88 8.89 8.9 8.91 8.92 8.93 8.94 8.950000000000001 8.96 8.97 8.98 8.99 9.0 9.01 9.02 9.03 9.040000000000001 9.05 9.06 9.07 9.08 9.09 9.1 9.11 9.120000000000001 9.13 9.14 9.15 9.16 9.17 9.18 9.19 9.200000000000001 9.21 9.22 9.23 9.24 9.25 9.26 9.27 9.28 9.290000000000001 9.3 9.31 9.32 9.33 9.34 9.35 9.36 9.370000000000001 9.38 9.39 9.4 9.41 9.42 9.43 9.44 9.450000000000001 9.46 9.47 9.48 9.49 9.5 9.51 9.52 9.53 9.540000000000001 9.55 9.56 9.57 9.58 9.59 9.6 9.61 9.620000000000001 9.63 9.64 9.65 9.66 9.67 9.68 9.69 9.700000000000001 9.71 9.72 9.73 9.74 9.75 9.76 9.77 9.78 9.790000000000001 9.8 9.81 9.82 9.83 9.84 9.85 9.86 9.870000000000001 9.88 9.89 9.9 9.91 9.92 9.93 9.94 9.950000000000001 9.96 9.97 9.98 9.99 10.0 10.01 10.02 10.03 10.040000000000001 10.05 10.06 10.07 10.08 10.09 10.1 10.11 10.120000000000001 10.13 10.14 10.15 10.16 10.17 10.18 10.19 10.200000000000001 10.21 10.22 10.23 10.24 10.25 10.26 10.27 10.28 10.290000000000001 10.3 10.31 10.32 10.33 10.34 10.35 10.36 10.370000000000001 10.38 10.39 10.4 10.41 10.42 10.43 10.44 10.450000000000001 10.46 10.47 10.48 10.49 10.5 10.51 10.52 10.53 10.540000000000001 10.55 10.56 10.57 10.58 10.59 10.6 10.61 10.620000000000001 10.63 10.64 10.65 10.66 10.67 10.68 10.69 10.700000000000001 10.71 10.72 10.73 10.74 10.75 10.76 10.77 10.78 10.790000000000001 10.8 10.81 10.82 10.83 10.84 10.85 10.86 10.870000000000001 10.88 10.89 10.9 10.91 10.92 10.93 10.94 10.950000000000001 10.96 10.97 10.98 10.99 11.0 11.01 11.02 11.03 11.040000000000001 11.05 11.06 11.07 11.08 11.09 11.1 11.11 11.120000000000001 11.13 11.14 11.15 11.16 11.17 11.18 11.19 11.200000000000001 11.21 11.22 11.23 11.24 11.25 11.26 11.27 11.28 11.290000000000001 11.3 11.31 11.32 11.33 11.34 11.35 11.36 11.370000000000001 11.38 11.39 11.4 11.41 11.42 11.43 11.44 11.450000000000001 11.46 11.47 11.48 11.49 11.5 11.51 11.52 11.53 11.540000000000001 11.55 11.56 11.57 11.58 11.59 11.6 11.61 11.620000000000001 11.63 11.64 11.65 11.66 11.67 11.68 11.69 11.700000000000001 11.71 11.72 11.73 11.74 11.75 11.76 11.77 11.78 11.790000000000001 11.8 11.81 11.82 11.83 11.84 11.85 11.86 11.870000000000001 11.88 11.89 11.9 11.91 11.92 11.93 11.94 11.950000000000001 11.96 11.97 11.98 11.99 12.0 12.01 12.02 12.030000000000001 12.040000000000001 12.05 12.06 12.07 12.08 12.09 12.1 12.11 12.120000000000001 12.13 12.14 12.15 12.16 12.17 12.18 12.19 12.200000000000001 12.21 12.22 12.23 12.24 12.25 12.26 12.27 12.280000000000001 12.290000000000001 12.3 12.31 12.32 12.33 12.34 12.35 12.36 12.370000000000001 12.38 12.39 12.4 12.41 12.42 12.43 12.44 12.450000000000001 12.46 12.47 12.48 12.49 12.5 12.51 12.52 12.530000000000001 12.540000000000001 12.55 12.56 12.57 12.58 12.59 12.6 12.61 12.620000000000001 12.63 12.64 12.65 12.66 12.67 12.68 12.69 12.700000000000001 12.71 12.72 12.73 12.74 12.75 12.76 12.77 12.780000000000001 12.790000000000001 12.8 12.81 12.82 12.83 12.84 12.85 12.86 12.870000000000001 12.88 12.89 12.9 12.91 12.92 12.93 12.94 12.950000000000001 12.96 12.97 12.98 12.99 13.0 13.01 13.02 13.030000000000001 13.040000000000001 13.05 13.06 13.07 13.08 13.09 13.1 13.11 13.120000000000001 13.13 13.14 13.15 13.16 13.17 13.18 13.19 13.200000000000001 13.21 13.22 13.23 13.24 13.25 13.26 13.27 13.280000000000001 13.290000000000001 13.3 13.31 13.32 13.33 13.34 13.35 13.36 13.370000000000001 13.38 13.39 13.4 13.41 13.42 13.43 13.44 13.450000000000001 13.46 13.47 13.48 13.49 13.5 13.51 13.52 13.530000000000001 13.540000000000001 13.55 13.56 13.57 13.58 13.59 13.6 13.61 13.620000000000001 13.63 13.64 13.65 13.66 13.67 13.68 13.69 13.700000000000001 13.71 13.72 13.73 13.74 13.75 13.76 13.77 13.780000000000001 13.790000000000001 13.8 13.81 13.82 13.83 13.84 13.85 13.86 13.870000000000001 13.88 13.89 13.9 13.91 13.92 13.93 13.94 13.950000000000001 13.96 13.97 13.98 13.99 14.0 14.01 14.02 14.030000000000001 14.040000000000001 14.05 14.06 14.07 14.08 14.09 14.1 14.11 14.120000000000001 14.13 14.14 14.15 14.16 14.17 14.18 14.19 14.200000000000001 14.21 14.22 14.23 14.24 14.25 14.26 14.27 14.280000000000001 14.290000000000001 14.3 14.31 14.32 14.33 14.34 14.35 14.36 14.370000000000001 14.38 14.39 14.4 14.41 14.42 14.43 14.44 14.450000000000001 14.46 14.47 14.48 14.49 14.5 14.51 14.52 14.530000000000001 14.540000000000001 14.55 14.56 14.57 14.58 14.59 14.6 14.61 14.620000000000001 14.63 14.64 14.65 14.66 14.67 14.68 14.69 14.700000000000001 14.71 14.72 14.73 14.74 14.75 14.76 14.77 14.780000000000001 14.790000000000001 14.8 14.81 14.82 14.83 14.84 14.85 14.86 14.870000000000001 14.88 14.89 14.9 14.91 14.92 14.93 14.94 14.950000000000001 14.96 14.97 14.98 14.99 15.0 15.01 15.02 15.030000000000001 15.040000000000001 15.05 15.06 15.07 15.08 15.09 15.1 15.11 15.120000000000001 15.13 15.14 15.15 15.16 15.17 15.18 15.19 15.200000000000001 15.21 15.22 15.23 15.24 15.25 15.26 15.27 15.280000000000001 15.290000000000001 15.3 15.31 15.32 15.33 15.34 15.35 15.36 15.370000000000001 15.38 15.39 15.4 15.41 15.42 15.43 15.44 15.450000000000001 15.46 15.47 15.48 15.49 15.5 15.51 15.52 15.530000000000001 15.540000000000001 15.55 15.56 15.57 15.58 15.59 15.6 15.610000000000001 15.620000000000001 15.63 15.64 15.65 15.66 15.67 15.68 15.69 15.700000000000001 15.71 15.72 15.73 15.74 15.75 15.76 15.77 15.780000000000001 15.790000000000001 15.8 15.81 15.82 15.83 15.84 15.85 15.860000000000001 15.870000000000001 15.88 15.89 15.9 15.91 15.92 15.93 15.94 15.950000000000001 15.96 15.97 15.98 15.99 16.0 16.01 16.02 16.03 16.04 16.05 16.06 16.07 16.080000000000002 16.09 16.1 16.11 16.12 16.13 16.14 16.15 16.16 16.17 16.18 16.19 16.2 16.21 16.22 16.23 16.240000000000002 16.25 16.26 16.27 16.28 16.29 16.3 16.31 16.32 16.330000000000002 16.34 16.35 16.36 16.37 16.38 16.39 16.4 16.41 16.42 16.43 16.44 16.45 16.46 16.47 16.48 16.490000000000002 16.5 16.51 16.52 16.53 16.54 16.55 16.56 16.57 16.580000000000002 16.59 16.6 16.61 16.62 16.63 16.64 16.65 16.66 16.67 16.68 16.69 16.7 16.71 16.72 16.73 16.740000000000002 16.75 16.76 16.77 16.78 16.79 16.8 16.81 16.82 16.830000000000002 16.84 16.85 16.86 16.87 16.88 16.89 16.9 16.91 16.92 16.93 16.94 16.95 16.96 16.97 16.98 16.990000000000002 17.0 17.01 17.02 17.03 17.04 17.05 17.06 17.07 17.080000000000002 17.09 17.1 17.11 17.12 17.13 17.14 17.150000000000002 17.16 17.17 17.18 17.19 17.2 17.21 17.22 17.23 17.240000000000002 17.25 17.26 17.27 17.28 17.29 17.3 17.31 17.32 17.330000000000002 17.34 17.35 17.36 17.37 17.38 17.39 17.400000000000002 17.41 17.42 17.43 17.44 17.45 17.46 17.47 17.48 17.490000000000002 17.5 17.51 17.52 17.53 17.54 17.55 17.56 17.57 17.580000000000002 17.59 17.6 17.61 17.62 17.63 17.64 17.650000000000002 17.66 17.67 17.68 17.69 17.7 17.71 17.72 17.73 17.740000000000002 17.75 17.76 17.77 17.78 17.79 17.8 17.81 17.82 17.830000000000002 17.84 17.85 17.86 17.87 17.88 17.89 17.900000000000002 17.91 17.92 17.93 17.94 17.95 17.96 17.97 17.98 17.990000000000002 18.0 18.01 18.02 18.03 18.04 18.05 18.06 18.07 18.080000000000002 18.09 18.1 18.11 18.12 18.13 18.14 18.150000000000002 18.16 18.17 18.18 18.19 18.2 18.21 18.22 18.23 18.240000000000002 18.25 18.26 18.27 18.28 18.29 18.3 18.31 18.32 18.330000000000002 18.34 18.35 18.36 18.37 18.38 18.39 18.400000000000002 18.41 18.42 18.43 18.44 18.45 18.46 18.47 18.48 18.490000000000002 18.5 18.51 18.52 18.53 18.54 18.55 18.56 18.57 18.580000000000002 18.59 18.6 18.61 18.62 18.63 18.64 18.650000000000002 18.66 18.67 18.68 18.69 18.7 18.71 18.72 18.73 18.740000000000002 18.75 18.76 18.77 18.78 18.79 18.8 18.81 18.82 18.830000000000002 18.84 18.85 18.86 18.87 18.88 18.89 18.900000000000002 18.91 18.92 18.93 18.94 18.95 18.96 18.97 18.98 18.990000000000002 19.0 19.01 19.02 19.03 19.04 19.05 19.06 19.07 19.080000000000002 19.09 19.1 19.11 19.12 19.13 19.14 19.150000000000002 19.16 19.17 19.18 19.19 19.2 19.21 19.22 19.23 19.240000000000002 19.25 19.26 19.27 19.28 19.29 19.3 19.31 19.32 19.330000000000002 19.34 19.35 19.36 19.37 19.38 19.39 19.400000000000002 19.41 19.42 19.43 19.44 19.45 19.46 19.47 19.48 19.490000000000002 19.5 19.51 19.52 19.53 19.54 19.55 19.56 19.57 19.580000000000002 19.59 19.6 19.61 19.62 19.63 19.64 19.650000000000002 19.66 19.67 19.68 19.69 19.7 19.71 19.72 19.73 19.740000000000002 19.75 19.76 19.77 19.78 19.79 19.8 19.81 19.82 19.830000000000002 19.84 19.85 19.86 19.87 19.88 19.89 19.900000000000002 19.91 19.92 19.93 19.94 19.95 19.96 19.97 19.98 19.990000000000002 20.0 20.01 20.02 20.03 20.04 20.05 20.06 20.07 20.080000000000002 20.09 20.1 20.11 20.12 20.13 20.14 20.150000000000002 20.16 20.17 20.18 20.19 20.2 20.21 20.22 20.23 20.240000000000002 20.25 20.26 20.27 20.28 20.29 20.3 20.31 20.32 20.330000000000002 20.34 20.35 20.36 20.37 20.38 20.39 20.400000000000002 20.41 20.42 20.43 20.44 20.45 20.46 20.47 20.48 20.490000000000002 20.5 20.51 20.52 20.53 20.54 20.55 20.56 20.57 20.580000000000002 20.59 20.6 20.61 20.62 20.63 20.64 20.650000000000002 20.66 20.67 20.68 20.69 20.7 20.71 20.72 20.73 20.740000000000002 20.75 20.76 20.77 20.78 20.79 20.8 20.81 20.82 20.830000000000002 20.84 20.85 20.86 20.87 20.88 20.89 20.900000000000002 20.91 20.92 20.93 20.94 20.95 20.96 20.97 20.98 20.990000000000002 21.0 21.01 21.02 21.03 21.04 21.05 21.06 21.07 21.080000000000002 21.09 21.1 21.11 21.12 21.13 21.14 21.150000000000002 21.16 21.17 21.18 21.19 21.2 21.21 21.22 21.23 21.240000000000002 21.25 21.26 21.27 21.28 21.29 21.3 21.31 21.32 21.330000000000002 21.34 21.35 21.36 21.37 21.38 21.39 21.400000000000002 21.41 21.42 21.43 21.44 21.45 21.46 21.47 21.48 21.490000000000002 21.5 21.51 21.52 21.53 21.54 21.55 21.56 21.57 21.580000000000002 21.59 21.6 21.61 21.62 21.63 21.64 21.650000000000002 21.66 21.67 21.68 21.69 21.7 21.71 21.72 21.73 21.740000000000002 21.75 21.76 21.77 21.78 21.79 21.8 21.81 21.82 21.830000000000002 21.84 21.85 21.86 21.87 21.88 21.89 21.900000000000002 21.91 21.92 21.93 21.94 21.95 21.96 21.97 21.98 21.990000000000002 22.0 22.01 22.02 22.03 22.04 22.05 22.06 22.07 22.080000000000002 22.09 22.1 22.11 22.12 22.13 22.14 22.150000000000002 22.16 22.17 22.18 22.19 22.2 22.21 22.22 22.23 22.240000000000002 22.25 22.26 22.27 22.28 22.29 22.3 22.31 22.32 22.330000000000002 22.34 22.35 22.36 22.37 22.38 22.39 22.400000000000002 22.41 22.42 22.43 22.44 22.45 22.46 22.47 22.48 22.490000000000002 22.5 22.51 22.52 22.53 22.54 22.55 22.56 22.57 22.580000000000002 22.59 22.6 22.61 22.62 22.63 22.64 22.650000000000002 22.66 22.67 22.68 22.69 22.7 22.71 22.72 22.73 22.740000000000002 22.75 22.76 22.77 22.78 22.79 22.8 22.81 22.82 22.830000000000002 22.84 22.85 22.86 22.87 22.88 22.89 22.900000000000002 22.91 22.92 22.93 22.94 22.95 22.96 22.97 22.98 22.990000000000002 23.0 23.01 23.02 23.03 23.04 23.05 23.06 23.07 23.080000000000002 23.09 23.1 23.11 23.12 23.13 23.14 23.150000000000002 23.16 23.17 23.18 23.19 23.2 23.21 23.22 23.23 23.240000000000002 23.25 23.26 23.27 23.28 23.29 23.3 23.31 23.32 23.330000000000002 23.34 23.35 23.36 23.37 23.38 23.39 23.400000000000002 23.41 23.42 23.43 23.44 23.45 23.46 23.47 23.48 23.490000000000002 23.5 23.51 23.52 23.53 23.54 23.55 23.56 23.57 23.580000000000002 23.59 23.6 23.61 23.62 23.63 23.64 23.650000000000002 23.66 23.67 23.68 23.69 23.7 23.71 23.72 23.73 23.740000000000002 23.75 23.76 23.77 23.78 23.79 23.8 23.81 23.82 23.830000000000002 23.84 23.85 23.86 23.87 23.88 23.89 23.900000000000002 23.91 23.92 23.93 23.94 23.95 23.96 23.97 23.98 23.990000000000002 24.0 24.01 24.02 24.03 24.04 24.05 24.060000000000002 24.07 24.080000000000002 24.09 24.1 24.11 24.12 24.13 24.14 24.150000000000002 24.16 24.17 24.18 24.19 24.2 24.21 24.22 24.23 24.240000000000002 24.25 24.26 24.27 24.28 24.29 24.3 24.310000000000002 24.32 24.330000000000002 24.34 24.35 24.36 24.37 24.38 24.39 24.400000000000002 24.41 24.42 24.43 24.44 24.45 24.46 24.47 24.48 24.490000000000002 24.5 24.51 24.52 24.53 24.54 24.55 24.560000000000002 24.57 24.580000000000002 24.59 24.6 24.61 24.62 24.63 24.64 24.650000000000002 24.66 24.67 24.68 24.69 24.7 24.71 24.72 24.73 24.740000000000002 24.75 24.76 24.77 24.78 24.79 24.8 24.810000000000002 24.82 24.830000000000002 24.84 24.85 24.86 24.87 24.88 24.89 24.900000000000002 24.91 24.92 24.93 24.94 24.95 24.96 24.97 24.98 24.990000000000002 25.0 25.01 25.02 25.03 25.04 25.05 25.060000000000002 25.07 25.080000000000002 25.09 25.1 25.11 25.12 25.13 25.14 25.150000000000002 25.16 25.17 25.18 25.19 25.2 25.21 25.22 25.23 25.240000000000002 25.25 25.26 25.27 25.28 25.29 25.3 25.310000000000002 25.32 25.330000000000002 25.34 25.35 25.36 25.37 25.38 25.39 25.400000000000002 25.41 25.42 25.43 25.44 25.45 25.46 25.47 25.48 25.490000000000002 25.5 25.51 25.52 25.53 25.54 25.55 25.560000000000002 25.57 25.580000000000002 25.59 25.6 25.61 25.62 25.63 25.64 25.650000000000002 25.66 25.67 25.68 25.69 25.7 25.71 25.72 25.73 25.740000000000002 25.75 25.76 25.77 25.78 25.79 25.8 25.810000000000002 25.82 25.830000000000002 25.84 25.85 25.86 25.87 25.88 25.89 25.900000000000002 25.91 25.92 25.93 25.94 25.95 25.96 25.97 25.98 25.990000000000002 26.0 26.01 26.02 26.03 26.04 26.05 26.060000000000002 26.07 26.080000000000002 26.09 26.1 26.11 26.12 26.13 26.14 26.150000000000002 26.16 26.17 26.18 26.19 26.2 26.21 26.22 26.23 26.240000000000002 26.25 26.26 26.27 26.28 26.29 26.3 26.310000000000002 26.32 26.330000000000002 26.34 26.35 26.36 26.37 26.38 26.39 26.400000000000002 26.41 26.42 26.43 26.44 26.45 26.46 26.47 26.48 26.490000000000002 26.5 26.51 26.52 26.53 26.54 26.55 26.560000000000002 26.57 26.580000000000002 26.59 26.6 26.61 26.62 26.63 26.64 26.650000000000002 26.66 26.67 26.68 26.69 26.7 26.71 26.72 26.73 26.740000000000002 26.75 26.76 26.77 26.78 26.79 26.8 26.810000000000002 26.82 26.830000000000002 26.84 26.85 26.86 26.87 26.88 26.89 26.900000000000002 26.91 26.92 26.93 26.94 26.95 26.96 26.97 26.98 26.990000000000002 27.0 27.01 27.02 27.03 27.04 27.05 27.060000000000002 27.07 27.080000000000002 27.09 27.1 27.11 27.12 27.13 27.14 27.150000000000002 27.16 27.17 27.18 27.19 27.2 27.21 27.22 27.23 27.240000000000002 27.25 27.26 27.27 27.28 27.29 27.3 27.310000000000002 27.32 27.330000000000002 27.34 27.35 27.36 27.37 27.38 27.39 27.400000000000002 27.41 27.42 27.43 27.44 27.45 27.46 27.47 27.48 27.490000000000002 27.5 27.51 27.52 27.53 27.54 27.55 27.560000000000002 27.57 27.580000000000002 27.59 27.6 27.61 27.62 27.63 27.64 27.650000000000002 27.66 27.67 27.68 27.69 27.7 27.71 27.72 27.73 27.740000000000002 27.75 27.76 27.77 27.78 27.79 27.8 27.810000000000002 27.82 27.830000000000002 27.84 27.85 27.86 27.87 27.88 27.89 27.900000000000002 27.91 27.92 27.93 27.94 27.95 27.96 27.97 27.98 27.990000000000002 28.0 28.01 28.02 28.03 28.04 28.05 28.060000000000002 28.07 28.080000000000002 28.09 28.1 28.11 28.12 28.13 28.14 28.150000000000002 28.16 28.17 28.18 28.19 28.2 28.21 28.22 28.23 28.240000000000002 28.25 28.26 28.27 28.28 28.29 28.3 28.310000000000002 28.32 28.330000000000002 28.34 28.35 28.36 28.37 28.38 28.39 28.400000000000002 28.41 28.42 28.43 28.44 28.45 28.46 28.47 28.48 28.490000000000002 28.5 28.51 28.52 28.53 28.54 28.55 28.560000000000002 28.57 28.580000000000002 28.59 28.6 28.61 28.62 28.63 28.64 28.650000000000002 28.66 28.67 28.68 28.69 28.7 28.71 28.72 28.73 28.740000000000002 28.75 28.76 28.77 28.78 28.79 28.8 28.810000000000002 28.82 28.830000000000002 28.84 28.85 28.86 28.87 28.88 28.89 28.900000000000002 28.91 28.92 28.93 28.94 28.95 28.96 28.97 28.98 28.990000000000002 29.0 29.01 29.02 29.03 29.04 29.05 29.060000000000002 29.07 29.080000000000002 29.09 29.1 29.11 29.12 29.13 29.14 29.150000000000002 29.16 29.17 29.18 29.19 29.2 29.21 29.22 29.23 29.240000000000002 29.25 29.26 29.27 29.28 29.29 29.3 29.310000000000002 29.32 29.330000000000002 29.34 29.35 29.36 29.37 29.38 29.39 29.400000000000002 29.41 29.42 29.43 29.44 29.45 29.46 29.47 29.48 29.490000000000002 29.5 29.51 29.52 29.53 29.54 29.55 29.560000000000002 29.57 29.580000000000002 29.59 29.6 29.61 29.62 29.63 29.64 29.650000000000002 29.66 29.67 29.68 29.69 29.7 29.71 29.72 29.73 29.740000000000002 29.75 29.76 29.77 29.78 29.79 29.8 29.810000000000002 29.82 29.830000000000002 29.84 29.85 29.86 29.87 29.88 29.89 29.900000000000002 29.91 29.92 29.93 29.94 29.95 29.96 29.97 29.98 29.990000000000002 30.0 30.01 30.02 30.03 30.04 30.05 30.060000000000002 30.07 30.080000000000002 30.09 30.1 30.11 30.12 30.13 30.14 30.150000000000002 30.16 30.17 30.18 30.19 30.2 30.21 30.22 30.23 30.240000000000002 30.25 30.26 30.27 30.28 30.29 30.3 30.310000000000002 30.32 30.330000000000002 30.34 30.35 30.36 30.37 30.38 30.39 30.400000000000002 30.41 30.42 30.43 30.44 30.45 30.46 30.47 30.48 30.490000000000002 30.5 30.51 30.52 30.53 30.54 30.55 30.560000000000002 30.57 30.580000000000002 30.59 30.6 30.61 30.62 30.63 30.64 30.650000000000002 30.66 30.67 30.68 30.69 30.7 30.71 30.72 30.73 30.740000000000002 30.75 30.76 30.77 30.78 30.79 30.8 30.810000000000002 30.82 30.830000000000002 30.84 30.85 30.86 30.87 30.88 30.89 30.900000000000002 30.91 30.92 30.93 30.94 30.95 30.96 30.970000000000002 30.98 30.990000000000002 31.0 31.01 31.02 31.03 31.04 31.05 31.060000000000002 31.07 31.080000000000002 31.09 31.1 31.11 31.12 31.13 31.14 31.150000000000002 31.16 31.17 31.18 31.19 31.2 31.21 31.220000000000002 31.23 31.240000000000002 31.25 31.26 31.27 31.28 31.29 31.3 31.310000000000002 31.32 31.330000000000002 31.34 31.35 31.36 31.37 31.38 31.39 31.400000000000002 31.41 31.42 31.43 31.44 31.45 31.46 31.470000000000002 31.48 31.490000000000002 31.5 31.51 31.52 31.53 31.54 31.55 31.560000000000002 31.57 31.580000000000002 31.59 31.6 31.61 31.62 31.63 31.64 31.650000000000002 31.66 31.67 31.68 31.69 31.7 31.71 31.720000000000002 31.73 31.740000000000002 31.75 31.76 31.77 31.78 31.79 31.8 31.810000000000002 31.82 31.830000000000002 31.84 31.85 31.86 31.87 31.88 31.89 31.900000000000002 31.91 31.92 31.93 31.94 31.95 31.96 31.970000000000002 31.98 31.990000000000002 32.0 32.01 32.02 32.03 32.04 32.05 32.06 32.07 32.08 32.09 32.1 32.11 32.12 32.13 32.14 32.15 32.160000000000004 32.17 32.18 32.19 32.2 32.21 32.22 32.230000000000004 32.24 32.25 32.26 32.27 32.28 32.29 32.3 32.31 32.32 32.33 32.34 32.35 32.36 32.37 32.38 32.39 32.4 32.410000000000004 32.42 32.43 32.44 32.45 32.46 32.47 32.480000000000004 32.49 32.5 32.51 32.52 32.53 32.54 32.55 32.56 32.57 32.58 32.59 32.6 32.61 32.62 32.63 32.64 32.65 32.660000000000004 32.67 32.68 32.69 32.7 32.71 32.72 32.730000000000004 32.74 32.75 32.76 32.77 32.78 32.79 32.8 32.81 32.82 32.83 32.84 32.85 32.86 32.87 32.88 32.89 32.9 32.910000000000004 32.92 32.93 32.94 32.95 32.96 32.97 32.980000000000004 32.99 33.0 33.01 33.02 33.03 33.04 33.05 33.06 33.07 33.08 33.09 33.1 33.11 33.12 33.13 33.14 33.15 33.160000000000004 33.17 33.18 33.19 33.2 33.21 33.22 33.230000000000004 33.24 33.25 33.26 33.27 33.28 33.29 33.3 33.31 33.32 33.33 33.34 33.35 33.36 33.37 33.38 33.39 33.4 33.410000000000004 33.42 33.43 33.44 33.45 33.46 33.47 33.480000000000004 33.49 33.5 33.51 33.52 33.53 33.54 33.55 33.56 33.57 33.58 33.59 33.6 33.61 33.62 33.63 33.64 33.65 33.660000000000004 33.67 33.68 33.69 33.7 33.71 33.72 33.730000000000004 33.74 33.75 33.76 33.77 33.78 33.79 33.8 33.81 33.82 33.83 33.84 33.85 33.86 33.87 33.88 33.89 33.9 33.910000000000004 33.92 33.93 33.94 33.95 33.96 33.97 33.980000000000004 33.99 34.0 34.01 34.02 34.03 34.04 34.05 34.06 34.07 34.08 34.09 34.1 34.11 34.12 34.13 34.14 34.15 34.160000000000004 34.17 34.18 34.19 34.2 34.21 34.22 34.230000000000004 34.24 34.25 34.26 34.27 34.28 34.29 34.300000000000004 34.31 34.32 34.33 34.34 34.35 34.36 34.37 34.38 34.39 34.4 34.410000000000004 34.42 34.43 34.44 34.45 34.46 34.47 34.480000000000004 34.49 34.5 34.51 34.52 34.53 34.54 34.550000000000004 34.56 34.57 34.58 34.59 34.6 34.61 34.62 34.63 34.64 34.65 34.660000000000004 34.67 34.68 34.69 34.7 34.71 34.72 34.730000000000004 34.74 34.75 34.76 34.77 34.78 34.79 34.800000000000004 34.81 34.82 34.83 34.84 34.85 34.86 34.87 34.88 34.89 34.9 34.910000000000004 34.92 34.93 34.94 34.95 34.96 34.97 34.980000000000004 34.99 35.0 35.01 35.02 35.03 35.04 35.050000000000004 35.06 35.07 35.08 35.09 35.1 35.11 35.12 35.13 35.14 35.15 35.160000000000004 35.17 35.18 35.19 35.2 35.21 35.22 35.230000000000004 35.24 35.25 35.26 35.27 35.28 35.29 35.300000000000004 35.31 35.32 35.33 35.34 35.35 35.36 35.37 35.38 35.39 35.4 35.410000000000004 35.42 35.43 35.44 35.45 35.46 35.47 35.480000000000004 35.49 35.5 35.51 35.52 35.53 35.54 35.550000000000004 35.56 35.57 35.58 35.59 35.6 35.61 35.62 35.63 35.64 35.65 35.660000000000004 35.67 35.68 35.69 35.7 35.71 35.72 35.730000000000004 35.74 35.75 35.76 35.77 35.78 35.79 35.800000000000004 35.81 35.82 35.83 35.84 35.85 35.86 35.87 35.88 35.89 35.9 35.910000000000004 35.92 35.93 35.94 35.95 35.96 35.97 35.980000000000004 35.99 36.0 36.01 36.02 36.03 36.04 36.050000000000004 36.06 36.07 36.08 36.09 36.1 36.11 36.12 36.13 36.14 36.15 36.160000000000004 36.17 36.18 36.19 36.2 36.21 36.22 36.230000000000004 36.24 36.25 36.26 36.27 36.28 36.29 36.300000000000004 36.31 36.32 36.33 36.34 36.35 36.36 36.37 36.38 36.39 36.4 36.410000000000004 36.42 36.43 36.44 36.45 36.46 36.47 36.480000000000004 36.49 36.5 36.51 36.52 36.53 36.54 36.550000000000004 36.56 36.57 36.58 36.59 36.6 36.61 36.62 36.63 36.64 36.65 36.660000000000004 36.67 36.68 36.69 36.7 36.71 36.72 36.730000000000004 36.74 36.75 36.76 36.77 36.78 36.79 36.800000000000004 36.81 36.82 36.83 36.84 36.85 36.86 36.87 36.88 36.89 36.9 36.910000000000004 36.92 36.93 36.94 36.95 36.96 36.97 36.980000000000004 36.99 37.0 37.01 37.02 37.03 37.04 37.050000000000004 37.06 37.07 37.08 37.09 37.1 37.11 37.12 37.13 37.14 37.15 37.160000000000004 37.17 37.18 37.19 37.2 37.21 37.22 37.230000000000004 37.24 37.25 37.26 37.27 37.28 37.29 37.300000000000004 37.31 37.32 37.33 37.34 37.35 37.36 37.37 37.38 37.39 37.4 37.410000000000004 37.42 37.43 37.44 37.45 37.46 37.47 37.480000000000004 37.49 37.5 37.51 37.52 37.53 37.54 37.550000000000004 37.56 37.57 37.58 37.59 37.6 37.61 37.62 37.63 37.64 37.65 37.660000000000004 37.67 37.68 37.69 37.7 37.71 37.72 37.730000000000004 37.74 37.75 37.76 37.77 37.78 37.79 37.800000000000004 37.81 37.82 37.83 37.84 37.85 37.86 37.87 37.88 37.89 37.9 37.910000000000004 37.92 37.93 37.94 37.95 37.96 37.97 37.980000000000004 37.99 38.0 38.01 38.02 38.03 38.04 38.050000000000004 38.06 38.07 38.08 38.09 38.1 38.11 38.12 38.13 38.14 38.15 38.160000000000004 38.17 38.18 38.19 38.2 38.21 38.22 38.230000000000004 38.24 38.25 38.26 38.27 38.28 38.29 38.300000000000004 38.31 38.32 38.33 38.34 38.35 38.36 38.37 38.38 38.39 38.4 38.410000000000004 38.42 38.43 38.44 38.45 38.46 38.47 38.480000000000004 38.49 38.5 38.51 38.52 38.53 38.54 38.550000000000004 38.56 38.57 38.58 38.59 38.6 38.61 38.62 38.63 38.64 38.65 38.660000000000004 38.67 38.68 38.69 38.7 38.71 38.72 38.730000000000004 38.74 38.75 38.76 38.77 38.78 38.79 38.800000000000004 38.81 38.82 38.83 38.84 38.85 38.86 38.87 38.88 38.89 38.9 38.910000000000004 38.92 38.93 38.94 38.95 38.96 38.97 38.980000000000004 38.99 39.0 39.01 39.02 39.03 39.04 39.050000000000004 39.06 39.07 39.08 39.09 39.1 39.11 39.12 39.13 39.14 39.15 39.160000000000004 39.17 39.18 39.19 39.2 39.21 39.22 39.230000000000004 39.24 39.25 39.26 39.27 39.28 39.29 39.300000000000004 39.31 39.32 39.33 39.34 39.35 39.36 39.37 39.38 39.39 39.4 39.410000000000004 39.42 39.43 39.44 39.45 39.46 39.47 39.480000000000004 39.49 39.5 39.51 39.52 39.53 39.54 39.550000000000004 39.56 39.57 39.58 39.59 39.6 39.61 39.62 39.63 39.64 39.65 39.660000000000004 39.67 39.68 39.69 39.7 39.71 39.72 39.730000000000004 39.74 39.75 39.76 39.77 39.78 39.79 39.800000000000004 39.81 39.82 39.83 39.84 39.85 39.86 39.87 39.88 39.89 39.9 39.910000000000004 39.92 39.93 39.94 39.95 39.96 39.97 39.980000000000004 39.99 40.0 40.01 40.02 