<?xml version="1.0" encoding="utf-8"?>
<VTKFile type="RectilinearGrid">
  <RectilinearGrid WholeExtent="0 100 0 100 0 0">
    <Piece Extent="0 100 0 100 0 0">
      <PointData Scalars="Data">
        <DataArray Name="Data" type="Float64" NumberOfComponents="1" format="ascii">
2.718281828459045 2.6649891864704807 2.613786666567637 2.564593534541584 2.5173329804659317 2.471931923057472 2.4283208250714012 2.386433519088606 2.3462070430930266 2.3075814852750574 2.270499837532406 2.234907857172984 2.2007539363554685 2.167988978832211 2.136566283586382 2.1064414349807272 2.077572199059172 2.0499184256649112 2.0234419560595986 1.998106535747935 1.9738777322304475 1.95072285742459 1.9286108945105993 1.9075124289738665 1.8873995836299884 1.8682459574322223 1.850026567873837 1.832717796809887 1.816297339534275 1.800744156958686 1.7860384307500734 1.7721615212929651 1.7590959283518806 1.7468252543177483 1.7353341699303357 1.7246083823764353 1.7146346056709032 1.7054005332346434 1.696894812590325 1.689107022102996 1.6820276496988864 1.6756480735015604 1.6699605443302317 1.6649581700105007 1.660634901453039 1.6569855204608508 1.6540056292306988 1.6516916415191254 1.650040775448214 1.649051047930892 1.6487212707001282 1.649051047930892 1.650040775448214 1.6516916415191254 1.6540056292306988 1.6569855204608508 1.660634901453039 1.6649581700105007 1.6699605443302317 1.6756480735015604 1.6820276496988864 1.689107022102996 1.696894812590325 1.7054005332346434 1.7146346056709032 1.7246083823764355 1.7353341699303357 1.7468252543177485 1.7590959283518808 1.7721615212929651 1.7860384307500734 1.8007441569586857 1.816297339534275 1.832717796809887 1.850026567873837 1.8682459574322223 1.8873995836299884 1.9075124289738665 1.9286108945105993 1.95072285742459 1.9738777322304477 1.998106535747935 2.0234419560595986 2.0499184256649112 2.077572199059172 2.1064414349807272 2.136566283586382 2.167988978832211 2.2007539363554685 2.234907857172984 2.270499837532406 2.3075814852750574 2.3462070430930266 2.386433519088607 2.4283208250714017 2.471931923057472 2.5173329804659317 2.564593534541584 2.613786666567637 2.6649891864704807 2.718281828459045 2.6649891864704807 2.6127413609760657 2.56254268016508 2.514313992644344 2.4679799943666105 2.4234690368267655 2.3807129460762835 2.3396468519259908 2.3002090267469857 2.2623407333167083 2.225986081191952 2.19109189112311 2.1576075670543857 2.1254849752831912 2.0946783303786183 2.065144087483855 2.036840840650827 2.0097292268772886 1.9837718355371599 1.9589331229142148 1.9351793315673382 1.912478414272582 1.8907999623032261 1.8701151378240854 1.85039661019041 1.8316184959550363 1.813756302399957 1.7967868744202726 1.780688344599613 1.7654400863266129 1.7510226698119447 1.7374178208747806 1.7246083823764353 1.7125782781873473 1.7013124795815295 1.690796973960198 1.6810187358135 1.6719656998361128 1.6636267361190586 1.6559916273463253 1.649051047930892 1.6427965450305153 1.6372205213891702 1.632316219955379 1.6280777102338264 1.624499876331664 1.621578406665763 1.6193097853019272 1.6176912849017004 1.6167209612569624 1.6163976493969747 1.6167209612569624 1.6176912849017004 1.6193097853019272 1.621578406665763 1.624499876331664 1.6280777102338266 1.632316219955379 1.6372205213891702 1.6427965450305153 1.649051047930892 1.6559916273463253 1.6636267361190586 1.6719656998361128 1.6810187358135 1.6907969739601982 1.7013124795815295 1.7125782781873475 1.7246083823764355 1.7374178208747806 1.7510226698119447 1.7654400863266126 1.780688344599613 1.7967868744202726 1.813756302399957 1.8316184959550363 1.85039661019041 1.8701151378240854 1.8907999623032261 1.912478414272582 1.9351793315673385 1.9589331229142148 1.98377183553716 2.009729226877289 2.036840840650827 2.065144087483855 2.0946783303786183 2.1254849752831912 2.1576075670543857 2.19109189112311 2.225986081191952 2.2623407333167083 2.3002090267469857 2.339646851925991 2.3807129460762835 2.423469036826766 2.46797999436661 2.514313992644344 2.56254268016508 2.6127413609760657 2.6649891864704807 2.613786666567637 2.56254268016508 2.5133084681655893 2.4660063999141566 2.4205626181825304 2.376906851050549 2.3349722343978727 2.2946951443882866 2.256015039367736 2.218874310633741 2.1832181415679144 2.1489943746552203 2.116153385943452 2.0846479665243423 2.0544332106438876 2.0254664100739608 1.997706954400252 1.9711162369030981 1.9456575657279391 1.921296080061071 1.897998671044142 1.8757339071775117 1.8544719639782699 1.834184557673453 1.8148448827228365 1.7964275529787306 1.7789085463024783 1.7622651524689288 1.7464759242010608 1.7315206311872335 1.717380216943264 1.7040367583907279 1.691473428031577 1.6796744586074264 1.668625110139667 1.6583116392540103 1.6487212707001282 1.6398421709837834 1.6316634240352847 1.6241750088442293 1.617367778996389 1.6112334440542406 1.605764552728075 1.600954477789854 1.5967974026870526 1.5932883098186303 1.590422970440039 1.5881979361688352 1.586610532067001 1.585658851280547 1.585341751221354 1.585658851280547 1.586610532067001 1.5881979361688352 1.590422970440039 1.5932883098186303 1.5967974026870526 1.600954477789854 1.605764552728075 1.6112334440542406 1.617367778996389 1.6241750088442293 1.6316634240352847 1.6398421709837834 1.6487212707001282 1.6583116392540105 1.668625110139667 1.6796744586074266 1.6914734280315773 1.7040367583907279 1.7173802169432641 1.7315206311872333 1.7464759242010608 1.7622651524689288 1.7789085463024783 1.7964275529787306 1.8148448827228365 1.834184557673453 1.8544719639782699 1.8757339071775117 1.897998671044142 1.921296080061071 1.9456575657279391 1.9711162369030986 1.997706954400252 2.0254664100739608 2.0544332106438876 2.0846479665243423 2.116153385943452 2.1489943746552203 2.1832181415679144 2.218874310633741 2.2560150393677363 2.2946951443882866 2.334972234397873 2.376906851050549 2.4205626181825304 2.4660063999141566 2.5133084681655893 2.56254268016508 2.613786666567637 2.564593534541584 2.514313992644344 2.4660063999141566 2.41959458675445 2.375006085977112 2.332171948224334 2.2910265678011643 2.2515075183125624 2.213555397537014 2.1771136810045597 2.14212858378053 2.108548929987587 2.0763260296279507 2.0454135622951166 2.01576746739001 1.9873458404805946 1.9601088354664575 1.9340185722310217 1.9090390494838296 1.8851360625139246 1.8622771255927846 1.8404313987816374 1.8195696189133626 1.7996640345336419 1.780688344599613 1.7626176407470755 1.7454283529493426 1.729098198402185 1.713606133480012 1.6989323086185506 1.6850580259888037 1.6719656998361128 1.6596388193666756 1.648061914071965 1.6372205213891702 1.627101156603072 1.6176912849017004 1.608979295504727 1.600954477789854 1.5936069993484847 1.5869278859077405 1.5809090030614197 1.5755430397578374 1.5708234934976133 1.5667446571994512 1.563301607696762 1.5604901958326667 1.5583070381254784 1.556749509981219 1.5558157404341075 1.5555046084002613 1.5558157404341075 1.556749509981219 1.5583070381254784 1.5604901958326667 1.563301607696762 1.5667446571994514 1.5708234934976133 1.5755430397578374 1.5809090030614197 1.5869278859077405 1.5936069993484847 1.600954477789854 1.608979295504727 1.6176912849017004 1.6271011566030722 1.6372205213891702 1.6480619140719652 1.6596388193666758 1.6719656998361128 1.6850580259888037 1.6989323086185506 1.713606133480012 1.729098198402185 1.7454283529493426 1.7626176407470755 1.780688344599613 1.7996640345336419 1.8195696189133626 1.8404313987816374 1.8622771255927848 1.8851360625139246 1.9090390494838299 1.934018572231022 1.9601088354664575 1.9873458404805946 2.01576746739001 2.0454135622951166 2.0763260296279507 2.108548929987587 2.14212858378053 2.1771136810045597 2.213555397537014 2.251507518312563 2.2910265678011648 2.332171948224334 2.3750060859771116 2.41959458675445 2.4660063999141566 2.514313992644344 2.564593534541584 2.5173329804659317 2.4679799943666105 2.4205626181825304 2.375006085977112 2.331239265993926 2.2891944794799635 2.248807329727761 2.2100165407413472 2.1727638049685454 2.136993639577274 2.1026532507863465 2.06969240579197 2.038063311859906 2.007720502180154 1.9786207281062138 1.95072285742459 1.9239877783222952 1.8983783087408552 1.8738591108247435 1.8503966101904101 1.8279589197591808 1.8065157679133739 1.7860384307500734 1.7664996682211898 1.7478736639617798 1.7301359686211588 1.713263446523154 1.697234225493002 1.6820276496988864 1.6676242353660415 1.654005629230699 1.6411545696100263 1.6290548499725743 1.6176912849017004 1.607049678351967 1.5971167941056672 1.5878803283434426 1.5793288842494408 1.571451948577649 1.5642398701119569 1.5576838399581712 1.5517758736116396 1.5465087947493774 1.5418762207006325 1.5378725495547017 1.5344929488695405 1.5317333459492963 1.5295904196633787 1.5280615937840571 1.5271450318238715 1.5268396333583714 1.5271450318238715 1.5280615937840571 1.5295904196633787 1.5317333459492963 1.5344929488695405 1.5378725495547017 1.5418762207006325 1.5465087947493774 1.5517758736116396 1.5576838399581712 1.5642398701119569 1.571451948577649 1.5793288842494408 1.5878803283434426 1.5971167941056674 1.6070496783519672 1.6176912849017004 1.6290548499725743 1.6411545696100265 1.654005629230699 1.6676242353660413 1.6820276496988864 1.697234225493002 1.713263446523154 1.7301359686211588 1.7478736639617798 1.7664996682211898 1.7860384307500734 1.8065157679133739 1.827958919759181 1.8503966101904101 1.8738591108247435 1.8983783087408554 1.9239877783222952 1.95072285742459 1.9786207281062138 2.007720502180154 2.038063311859906 2.06969240579197 2.1026532507863465 2.136993639577274 2.1727638049685454 2.2100165407413477 2.2488073297277613 2.289194479479964 2.3312392659939256 2.375006085977112 2.4205626181825304 2.4679799943666105 2.5173329804659317 2.471931923057472 2.4234690368267655 2.376906851050549 2.332171948224334 2.2891944794799635 2.2479079866764717 2.208249234525497 2.170158052166954 2.133577183647538 2.098452146789139 2.0647310999664867 2.0323647163435035 2.0013060651460837 1.971510499575432 1.9429355509908317 1.9155408290138962 1.8892879272280556 1.8641403341673974 1.8400633493080554 1.817024003793252 1.7949909856399 1.773934569190453 1.7538265485885043 1.7346401750705889 1.7163500978797208 1.6989323086185506 1.682364088871622 1.6666239609371587 1.6516916415191254 1.6375479982400416 1.6241750088442295 1.611555722969869 1.5996742263764674 1.5885156075221454 1.5780659263925418 1.568312185490169 1.5592423028997282 1.5508450873512742 1.5431102152091833 1.5360282093206972 1.5295904196633787 1.5237890057361527 1.5186169206437479 1.5140678968293055 1.5101364334147125 1.5068177851128537 1.5041079526804944 1.5020036748848973 1.5005024219615783 1.4996023905448275 1.499302500056767 1.4996023905448275 1.5005024219615783 1.5020036748848973 1.5041079526804944 1.5068177851128537 1.5101364334147127 1.5140678968293058 1.5186169206437479 1.5237890057361527 1.5295904196633787 1.5360282093206972 1.5431102152091833 1.5508450873512742 1.5592423028997282 1.568312185490169 1.578065926392542 1.5885156075221454 1.5996742263764674 1.611555722969869 1.6241750088442295 1.6375479982400416 1.6516916415191254 1.6666239609371587 1.682364088871622 1.6989323086185506 1.7163500978797208 1.7346401750705889 1.7538265485885043 1.773934569190453 1.7949909856399002 1.817024003793252 1.8400633493080556 1.8641403341673977 1.8892879272280556 1.9155408290138962 1.9429355509908317 1.971510499575432 2.0013060651460837 2.0323647163435035 2.0647310999664867 2.098452146789139 2.133577183647538 2.1701580521669546 2.208249234525497 2.2479079866764717 2.2891944794799635 2.332171948224334 2.376906851050549 2.4234690368267655 2.471931923057472 2.4283208250714012 2.3807129460762835 2.3349722343978727 2.2910265678011643 2.248807329727761 2.208249234525497 2.1692901625355856 2.1318710044632896 2.0959355144943643 2.061430171653389 2.028304048931784 1.9965086897429571 1.9659979912897256 1.9367280944551468 1.9086572798521686 1.881745869690293 1.8559561351387606 1.8312522088857732 1.8076000026120045 1.7849671291142533 1.7633228288315885 1.7426379005418464 1.7228846360108874 1.7040367583907279 1.686069364175513 1.6689588685364218 1.6526829538680021 1.6372205213891702 1.6225516456522613 1.6086575318230667 1.595520475603839 1.5831238256797842 1.571451948577649 1.5604901958326667 1.5502248733674 1.5406432129929153 1.5317333459492963 1.523484278408754 1.515885868870569 1.5089288073828002 1.502604596531168 1.4969055341407616 1.4918246976412703 1.4873559300513066 1.483493827542086 1.4802337285452964 1.4775717043744152 1.475504551333055 1.4740297842881416 1.4731456316898728 1.4728510320244834 1.4731456316898728 1.4740297842881416 1.475504551333055 1.4775717043744152 1.4802337285452964 1.4834938275420861 1.4873559300513066 1.4918246976412703 1.4969055341407616 1.502604596531168 1.5089288073828002 1.515885868870569 1.523484278408754 1.5317333459492963 1.5406432129929155 1.5502248733674 1.5604901958326667 1.571451948577649 1.5831238256797844 1.595520475603839 1.6086575318230667 1.6225516456522613 1.6372205213891702 1.6526829538680021 1.6689588685364218 1.686069364175513 1.7040367583907279 1.7228846360108874 1.7426379005418464 1.7633228288315888 1.7849671291142533 1.8076000026120047 1.8312522088857734 1.8559561351387606 1.881745869690293 1.9086572798521686 1.9367280944551468 1.9659979912897256 1.9965086897429571 2.028304048931784 2.061430171653389 2.0959355144943643 2.13187100446329 2.1692901625355856 2.208249234525497 2.248807329727761 2.2910265678011643 2.3349722343978727 2.3807129460762835 2.4283208250714012 2.386433519088606 2.3396468519259908 2.2946951443882866 2.2515075183125624 2.2100165407413472 2.170158052166954 2.1318710044632896 2.0950973079410535 2.059781686997847 2.0258715438680044 1.9933168300080861 1.9620699246831081 1.932085520345821 1.9033205144268641 1.8757339071775117 1.8492867052290811 1.823941830554062 1.7996640345336417 1.7764198168547607 1.7541773489770913 1.7329064019265712 1.7125782781873475 1.6931657474783055 1.6746429862137984 1.6569855204608508 1.6401701722170101 1.6241750088442293 1.6089792955047268 1.5945634504547321 1.5809090030614197 1.5679985544172235 1.5558157404341075 1.5443451973083246 1.5335725292537161 1.523484278408754 1.5140678968293055 1.5053117204855597 1.4972049451876963 1.4897376043707538 1.482900548674753 1.4766854272615126 1.4710846708147431 1.4660914761749704 1.4616997925656217 1.4579043093712258 1.454700445433166 1.4520843398327752 1.450052844135808 1.4486035160764794 1.4477346146633243 1.4474450966931538 1.4477346146633243 1.4486035160764794 1.450052844135808 1.4520843398327752 1.454700445433166 1.4579043093712258 1.4616997925656219 1.4660914761749704 1.4710846708147431 1.4766854272615126 1.482900548674753 1.4897376043707538 1.4972049451876963 1.5053117204855597 1.5140678968293055 1.523484278408754 1.5335725292537161 1.5443451973083246 1.5558157404341075 1.5679985544172235 1.5809090030614197 1.5945634504547321 1.6089792955047268 1.6241750088442293 1.6401701722170101 1.6569855204608508 1.6746429862137984 1.6931657474783055 1.7125782781873475 1.7329064019265714 1.7541773489770915 1.7764198168547607 1.7996640345336419 1.823941830554062 1.8492867052290811 1.8757339071775117 1.9033205144268641 1.932085520345821 1.9620699246831081 1.9933168300080861 2.0258715438680044 2.0597816869978476 2.0950973079410535 2.13187100446329 2.1701580521669546 2.2100165407413472 2.2515075183125624 2.2946951443882866 2.3396468519259908 2.386433519088606 2.3462070430930266 2.3002090267469857 2.256015039367736 2.213555397537014 2.1727638049685454 2.133577183647538 2.0959355144943643 2.059781686997847 2.0250613572985734 1.991722814235403 1.9597168528989277 1.9289966552642908 1.899517677502547 1.871237543594839 1.844115944897134 1.8181145453252707 1.7931968918506624 1.7693283300163316 1.7464759242010608 1.7246083823764353 1.7036959851175129 1.683710518642818 1.6646252116734421 1.6464146759142417 1.6290548499725743 1.6125229465417055 1.5967974026870526 1.5818578330837982 1.5676849860642206 1.5542607023423058 1.541567876291961 1.5295904196633785 1.5183132276299327 1.507722147065376 1.4978039469581388 1.4885462908761917 1.4799377114022882 1.4719675864654396 1.464626117500246 1.4579043093712258 1.4517939520045593 1.4462876036747396 1.4413785758984943 1.4370609198930484 1.4333294145603401 1.4301795559632071 1.4276075482638448 1.4256102960990087 1.4241853983705155 1.4233311434336018 1.4230465056696402 1.4233311434336018 1.4241853983705155 1.4256102960990087 1.4276075482638448 1.4301795559632071 1.4333294145603401 1.4370609198930486 1.4413785758984943 1.4462876036747396 1.4517939520045593 1.4579043093712258 1.464626117500246 1.4719675864654396 1.4799377114022882 1.4885462908761917 1.4978039469581388 1.507722147065376 1.5183132276299327 1.5295904196633787 1.541567876291961 1.5542607023423058 1.5676849860642206 1.5818578330837982 1.5967974026870526 1.6125229465417055 1.6290548499725743 1.6464146759142417 1.6646252116734421 1.683710518642818 1.7036959851175129 1.7246083823764355 1.746475924201061 1.7693283300163318 1.7931968918506624 1.8181145453252707 1.844115944897134 1.871237543594839 1.899517677502547 1.9289966552642908 1.9597168528989277 1.991722814235403 2.025061357298574 2.0597816869978476 2.0959355144943643 2.133577183647538 2.172763804968545 2.213555397537014 2.256015039367736 2.3002090267469857 2.3462070430930266 2.3075814852750574 2.2623407333167083 2.218874310633741 2.1771136810045597 2.136993639577274 2.098452146789139 2.061430171653389 2.0258715438680044 1.991722814235403 1.958933122914215 1.9274540750544344 1.897239623395375 1.8682459574322223 1.8404313987816376 1.8137563023999572 1.788182963329177 1.763675528666163 1.7401999144695428 1.717723727336547 1.6962161903987756 1.6756480735015604 1.6559916273463255 1.6372205213891704 1.6193097853019274 1.6022357538141607 1.5859760147660946 1.5705093602132894 1.5558157404341078 1.5418762207006325 1.5286729406827992 1.5161890763640817 1.504408804355195 1.49331726849996 1.482900548674753 1.4731456316898728 1.4640403842077143 1.4555735275988833 1.4477346146633245 1.4405140081492172 1.433902861007808 1.4278930983275524 1.4224774008959153 1.4176491903419863 1.4134026158176771 1.409732542179755 1.4066345396392816 1.4041048748492515 1.4021405034053207 1.4007390637385353 1.3998988723829047 1.399618920604539 1.3998988723829047 1.4007390637385353 1.4021405034053207 1.4041048748492515 1.4066345396392816 1.409732542179755 1.4134026158176771 1.417649190341986 1.4224774008959153 1.4278930983275524 1.433902861007808 1.4405140081492172 1.4477346146633245 1.4555735275988833 1.4640403842077145 1.4731456316898728 1.4829005486747533 1.49331726849996 1.504408804355195 1.516189076364082 1.5286729406827992 1.5418762207006325 1.5558157404341078 1.5705093602132894 1.5859760147660946 1.6022357538141607 1.6193097853019274 1.6372205213891704 1.6559916273463255 1.6756480735015604 1.6962161903987756 1.7177237273365473 1.740199914469543 1.763675528666163 1.788182963329177 1.8137563023999572 1.8404313987816376 1.8682459574322223 1.897239623395375 1.9274540750544344 1.958933122914215 1.991722814235403 2.025871543868005 2.061430171653389 2.098452146789139 2.1369936395772737 2.1771136810045597 2.218874310633741 2.2623407333167083 2.3075814852750574 2.270499837532406 2.225986081191952 2.1832181415679144 2.14212858378053 2.1026532507863465 2.0647310999664867 2.028304048931784 1.9933168300080861 1.9597168528989277 1.9274540750544344 1.8964808793049517 1.8667519583455914 1.8382242056838214 1.8108566126864887 1.784610171385393 1.7594477827218151 1.7353341699303357 1.7122357967809925 1.6901207904163387 1.668958868536422 1.6487212707001282 1.6293806935258381 1.6109112295879509 1.5932883098186306 1.5764886492361674 1.560490195832667 1.54527208246445 1.530814581598595 1.517099062778525 1.5041079526804944 1.4918246976412703 1.4802337285452964 1.4693204279671832 1.4590710994725347 1.4494729389869156 1.4405140081492172 1.4321832095718183 1.4244702639357967 1.4173656888550115 1.4108607794482335 1.404947590563594 1.399618920604539 1.3948682969111956 1.3906899626555955 1.387078865213617 1.3840306459807514 1.38154163160296 1.379608826597911 1.378229907345849 1.3774032174332158 1.3771277643359572 1.3774032174332158 1.378229907345849 1.379608826597911 1.38154163160296 1.3840306459807514 1.387078865213617 1.3906899626555957 1.3948682969111956 1.399618920604539 1.404947590563594 1.4108607794482335 1.4173656888550115 1.4244702639357967 1.4321832095718183 1.4405140081492172 1.4494729389869159 1.4590710994725347 1.4693204279671832 1.4802337285452967 1.4918246976412706 1.5041079526804944 1.517099062778525 1.530814581598595 1.54527208246445 1.560490195832667 1.5764886492361674 1.5932883098186306 1.6109112295879509 1.6293806935258381 1.6487212707001284 1.668958868536422 1.690120790416339 1.7122357967809925 1.7353341699303357 1.7594477827218151 1.784610171385393 1.8108566126864887 1.8382242056838214 1.8667519583455914 1.8964808793049517 1.9274540750544344 1.9597168528989277 1.9933168300080866 2.0283040489317843 2.0647310999664867 2.1026532507863465 2.14212858378053 2.1832181415679144 2.225986081191952 2.270499837532406 2.234907857172984 2.19109189112311 2.1489943746552203 2.108548929987587 2.06969240579197 2.0323647163435035 1.9965086897429571 1.9620699246831081 1.9289966552642908 1.897239623395375 1.8667519583455914 1.8374890630398786 1.8094085067159598 1.7824699235852406 1.756634917161986 1.7318669699461924 1.7081313581651871 1.6853950712974088 1.6636267361190586 1.6427965450305155 1.6228761884345884 1.603838790952958 1.5856588512805472 1.568312185490169 1.5517758736116396 1.5360282093206972 1.5210486525835603 1.5068177851128537 1.49331726849996 1.4805298048976538 1.4684391001351922 1.4570298291559023 1.4462876036747396 1.4361989419603518 1.426751240652859 1.4179327485349287 1.409732542179755 1.4021405034053205 1.3951472984698037 1.3887443589482549 1.3829238642356934 1.3776787256266034 1.3730025719254588 1.3688897365473756 1.3653352460723327 1.3623348102205863 1.359884813220988 1.3579823065478926 1.3566250030062241 1.3558112721480897 1.355540137008078 1.3558112721480897 1.3566250030062241 1.3579823065478926 1.359884813220988 1.3623348102205863 1.365335246072333 1.3688897365473758 1.3730025719254588 1.3776787256266034 1.3829238642356934 1.3887443589482549 1.3951472984698037 1.4021405034053205 1.409732542179755 1.4179327485349287 1.4267512406528593 1.436198941960352 1.4462876036747399 1.4570298291559023 1.4684391001351924 1.4805298048976538 1.49331726849996 1.5068177851128537 1.5210486525835603 1.5360282093206972 1.5517758736116396 1.568312185490169 1.5856588512805472 1.603838790952958 1.6228761884345884 1.6427965450305155 1.6636267361190589 1.685395071297409 1.7081313581651871 1.7318669699461924 1.756634917161986 1.7824699235852406 1.8094085067159598 1.8374890630398786 1.8667519583455914 1.897239623395375 1.9289966552642908 1.9620699246831086 1.9965086897429574 2.032364716343504 2.06969240579197 2.108548929987587 2.1489943746552203 2.19109189112311 2.234907857172984 2.2007539363554685 2.1576075670543857 2.116153385943452 2.0763260296279507 2.038063311859906 2.0013060651460837 1.9659979912897256 1.932085520345821 1.899517677502547 1.8682459574322223 1.8382242056838214 1.8094085067159598 1.781757078194389 1.7552301712015603 1.7297899760278472 1.7054005332346431 1.6820276496988864 1.6596388193666756 1.6382031484606465 1.6176912849017004 1.5980753517206583 1.579328884249441 1.5614267708945877 1.5443451973083246 1.5280615937840571 1.5125545857141431 1.4978039469581388 1.483790555979449 1.470496354617501 1.4579043093712258 1.4459983750778285 1.4347634608785558 1.4241853983705155 1.4142509118505286 1.4049475905635938 1.3962638628747914 1.3881889722894125 1.3807129552517639 1.3738266206585126 1.3675215310276052 1.3617899852687527 1.3566250030062241 1.3520203104092707 1.3479703274899086 1.3444701568320527 1.3415155737201272 1.3391030176392937 1.3372295851233538 1.3358930239302071 1.3350917285285084 1.3348247368828572 1.3350917285285084 1.3358930239302071 1.3372295851233538 1.3391030176392937 1.3415155737201272 1.3444701568320527 1.3479703274899086 1.3520203104092707 1.3566250030062241 1.3617899852687527 1.3675215310276052 1.3738266206585126 1.3807129552517639 1.3881889722894125 1.3962638628747914 1.4049475905635938 1.4142509118505286 1.4241853983705155 1.434763460878556 1.4459983750778287 1.4579043093712258 1.470496354617501 1.483790555979449 1.4978039469581388 1.5125545857141431 1.5280615937840571 1.5443451973083246 1.5614267708945877 1.579328884249441 1.5980753517206585 1.6176912849017007 1.6382031484606465 1.659638819366676 1.6820276496988864 1.7054005332346431 1.7297899760278472 1.7552301712015603 1.781757078194389 1.8094085067159598 1.8382242056838214 1.8682459574322223 1.8995176775025473 1.9320855203458212 1.965997991289726 2.001306065146084 2.038063311859906 2.0763260296279507 2.116153385943452 2.1576075670543857 2.2007539363554685 2.167988978832211 2.1254849752831912 2.0846479665243423 2.0454135622951166 2.007720502180154 1.971510499575432 1.9367280944551468 1.9033205144268641 1.871237543594839 1.8404313987816376 1.8108566126864887 1.7824699235852406 1.7552301712015603 1.729098198402185 1.7040367583907277 1.6800104270948766 1.6569855204608506 1.6349300163868428 1.6138134810439115 1.5936069993484847 1.5742831093653844 1.5558157404341078 1.538180154824114 1.521352892737078 1.5053117204855597 1.4900355816883664 1.475504551333055 1.4616997925656217 1.4486035160764794 1.4361989419603518 1.4244702639357965 1.4134026158176771 1.402982040143139 1.3931954588584743 1.3840306459807514 1.3754762021542504 1.3675215310276052 1.3601568173831418 1.3533730069552283 1.347161787879554 1.341515573720127 1.336427488025472 1.3318913503700116 1.3279016638409595 1.3244536039352572 1.3215430088351499 1.3191663710349588 1.317320830295466 1.316004167906087 1.3152148022387244 1.3149517855808193 1.3152148022387244 1.316004167906087 1.317320830295466 1.3191663710349588 1.3215430088351499 1.3244536039352575 1.3279016638409595 1.3318913503700116 1.336427488025472 1.341515573720127 1.347161787879554 1.3533730069552283 1.3601568173831418 1.3675215310276052 1.3754762021542504 1.3840306459807514 1.3931954588584743 1.402982040143139 1.4134026158176771 1.4244702639357967 1.4361989419603518 1.4486035160764794 1.4616997925656217 1.475504551333055 1.4900355816883664 1.5053117204855597 1.521352892737078 1.538180154824114 1.5558157404341078 1.5742831093653844 1.593606999348485 1.6138134810439115 1.634930016386843 1.6569855204608506 1.6800104270948766 1.7040367583907277 1.729098198402185 1.7552301712015603 1.7824699235852406 1.8108566126864887 1.8404313987816376 1.8712375435948392 1.9033205144268643 1.9367280944551468 1.971510499575432 2.0077205021801534 2.0454135622951166 2.0846479665243423 2.1254849752831912 2.167988978832211 2.136566283586382 2.0946783303786183 2.0544332106438876 2.01576746739001 1.9786207281062138 1.9429355509908317 1.9086572798521686 1.8757339071775117 1.844115944897134 1.8137563023999572 1.784610171385393 1.756634917161986 1.7297899760278472 1.7040367583907277 1.6793385573069546 1.6556604621384807 1.6329692770460718 1.6112334440542406 1.590422970440039 1.5705093602132894 1.5514655494703657 1.5332658454172712 1.515885868870569 1.499302500056767 1.483493827542086 1.4684391001351922 1.4541186816155132 1.4405140081492172 1.4276075482638448 1.4153827652610078 1.403824081954507 1.3929168476287541 1.3826473071194796 1.3730025719254588 1.3639705932663844 1.3555401370080777 1.3477007603820201 1.3404427904316814 1.3337573041233846 1.3276361100644543 1.3220717317762225 1.317057392474067 1.3125870013111083 1.3086551410464666 1.305257057103126 1.3023886479844544 1.3000464570223398 1.29822766543369 1.2969300866657718 1.2961521620145053 1.2958929575034177 1.2961521620145053 1.2969300866657718 1.29822766543369 1.3000464570223398 1.3023886479844544 1.305257057103126 1.3086551410464666 1.3125870013111083 1.317057392474067 1.3220717317762225 1.3276361100644543 1.3337573041233846 1.3404427904316814 1.3477007603820201 1.355540137008078 1.3639705932663844 1.3730025719254588 1.3826473071194796 1.3929168476287543 1.4038240819545071 1.4153827652610076 1.4276075482638448 1.4405140081492172 1.4541186816155132 1.4684391001351922 1.483493827542086 1.499302500056767 1.515885868870569 1.5332658454172712 1.5514655494703657 1.5705093602132894 1.5904229704400392 1.6112334440542408 1.6329692770460718 1.6556604621384807 1.6793385573069546 1.7040367583907277 1.7297899760278472 1.756634917161986 1.784610171385393 1.8137563023999572 1.8441159448971345 1.8757339071775117 1.9086572798521688 1.942935550990832 1.9786207281062136 2.01576746739001 2.0544332106438876 2.0946783303786183 2.136566283586382 2.1064414349807272 2.065144087483855 2.0254664100739608 1.9873458404805946 1.95072285742459 1.9155408290138962 1.881745869690293 1.8492867052290811 1.8181145453252707 1.788182963329177 1.7594477827218151 1.7318669699461924 1.7054005332346431 1.6800104270948766 1.6556604621384807 1.632316219955379 1.609944972756235 1.5885156075221452 1.5679985544172235 1.5483657192349372 1.5295904196633785 1.5116473251680964 1.494512400303741 1.4781628512776637 1.462577075599753 1.4477346146633245 1.4336161091117519 1.4202032568548653 1.4074787736079286 1.3954263558343039 1.3840306459807514 1.3732771999017261 1.3631524563760358 1.353643708625884 1.3447390777546149 1.336427488025472 1.328698643909375 1.3215430088351499 1.3149517855808193 1.3089168982495236 1.3034309757783689 1.298487336933061 1.2940799767455635 1.2902035543562271 1.2868533822259338 1.2840254166877414 1.2817162498113672 1.2799231025575897 1.2786438192033163 1.2778768630216575 1.2776213132048866 1.2778768630216575 1.2786438192033163 1.2799231025575897 1.2817162498113672 1.2840254166877414 1.2868533822259338 1.2902035543562271 1.2940799767455635 1.298487336933061 1.3034309757783689 1.3089168982495236 1.3149517855808193 1.3215430088351499 1.328698643909375 1.336427488025472 1.344739077754615 1.3536437086258841 1.3631524563760358 1.3732771999017261 1.3840306459807514 1.3954263558343039 1.4074787736079286 1.4202032568548653 1.4336161091117519 1.4477346146633245